<?xml version="1.0" encoding="UTF-8"?>

<!-- generated on 2025-04-19 12:54:09 by Eclipse SUMO GUI Version 1.21.0
<sumoConfiguration xmlns:xsi="http://www.w3.org/2001/XMLSchema-instance" xsi:noNamespaceSchemaLocation="http://sumo.dlr.de/xsd/sumoConfiguration.xsd">

    <input>
        <net-file value="E:\CE\MRT Traffic Management\network.net.xml"/>
        <route-files value="E:\CE\MRT Traffic Management\routes.rou.xml"/>
        <additional-files value="E:\CE\MRT Traffic Management\busBay.add.xml"/>
    </input>

    <output>
        <summary-output value="E:\CE\MRT Traffic Management\summary.xml"/>
        <tripinfo-output value="E:\CE\MRT Traffic Management\tripinfo.xml"/>
    </output>

    <time>
        <begin value="0"/>
        <end value="3600"/>
    </time>

</sumoConfiguration>
-->

<tripinfos xmlns:xsi="http://www.w3.org/2001/XMLSchema-instance" xsi:noNamespaceSchemaLocation="http://sumo.dlr.de/xsd/tripinfo_file.xsd">
    <tripinfo id="flow_east_to_east.0" depart="0.00" departLane="east_to_0_1" departPos="5.10" departSpeed="15.15" departDelay="0.00" arrival="136.00" arrivalLane="0_to_east_0" arrivalPos="983.20" arrivalSpeed="14.72" duration="136.00" routeLength="1975.32" waitingTime="0.00" waitingCount="0" stopTime="0.00" timeLoss="4.42" rerouteNo="0" devices="tripinfo_flow_east_to_east.0" vType="carDist2" speedFactor="1.09" vaporized=""/>
    <tripinfo id="flow_west_to_north.0" depart="0.00" departLane="west_to_0_0" departPos="2.10" departSpeed="14.53" departDelay="0.00" arrival="143.00" arrivalLane="0_to_north_0" arrivalPos="989.60" arrivalSpeed="14.22" duration="143.00" routeLength="1979.73" waitingTime="0.00" waitingCount="0" stopTime="0.00" timeLoss="5.10" rerouteNo="0" devices="tripinfo_flow_west_to_north.0" vType="motorcycleDist3" speedFactor="1.05" vaporized=""/>
    <tripinfo id="flow_south_to_north.5" depart="9.00" departLane="south_to_0_2" departPos="2.10" departSpeed="16.03" departDelay="0.43" arrival="157.00" arrivalLane="0_to_north_0" arrivalPos="989.60" arrivalSpeed="15.85" duration="148.00" routeLength="1997.90" waitingTime="14.00" waitingCount="1" stopTime="0.00" timeLoss="23.13" rerouteNo="0" devices="tripinfo_flow_south_to_north.5" vType="motorcycleDist1" speedFactor="1.15" vaporized=""/>
    <tripinfo id="flow_south_to_north.9" depart="16.00" departLane="south_to_0_3" departPos="2.10" departSpeed="16.24" departDelay="0.57" arrival="157.00" arrivalLane="0_to_north_1" arrivalPos="989.60" arrivalSpeed="15.73" duration="141.00" routeLength="1997.90" waitingTime="9.00" waitingCount="1" stopTime="0.00" timeLoss="17.01" rerouteNo="0" devices="tripinfo_flow_south_to_north.9" vType="motorcycleDist1" speedFactor="1.17" vaporized=""/>
    <tripinfo id="flow_north_to_south.1" depart="2.00" departLane="north_to_0_2" departPos="2.10" departSpeed="15.60" departDelay="0.44" arrival="159.00" arrivalLane="0_to_south_0" arrivalPos="989.60" arrivalSpeed="15.09" duration="157.00" routeLength="1997.90" waitingTime="20.00" waitingCount="1" stopTime="0.00" timeLoss="28.20" rerouteNo="0" devices="tripinfo_flow_north_to_south.1" vType="motorcycleDist1" speedFactor="1.12" vaporized=""/>
    <tripinfo id="flow_west_to_north.2" depart="12.00" departLane="west_to_0_1" departPos="2.10" departSpeed="14.31" departDelay="0.92" arrival="160.00" arrivalLane="0_to_north_0" arrivalPos="989.60" arrivalSpeed="13.94" duration="148.00" routeLength="1979.73" waitingTime="0.00" waitingCount="0" stopTime="0.00" timeLoss="7.80" rerouteNo="0" devices="tripinfo_flow_west_to_north.2" vType="motorcycleDist3" speedFactor="1.03" vaporized=""/>
    <tripinfo id="flow_south_to_north.7" depart="12.00" departLane="south_to_0_3" departPos="2.10" departSpeed="15.31" departDelay="0.00" arrival="161.00" arrivalLane="0_to_north_1" arrivalPos="989.60" arrivalSpeed="14.80" duration="149.00" routeLength="1997.90" waitingTime="7.00" waitingCount="1" stopTime="0.00" timeLoss="18.18" rerouteNo="0" devices="tripinfo_flow_south_to_north.7" vType="motorcycleDist1" speedFactor="1.10" vaporized=""/>
    <tripinfo id="flow_south_to_north.11" depart="19.00" departLane="south_to_0_3" departPos="2.10" departSpeed="15.55" departDelay="0.15" arrival="162.00" arrivalLane="0_to_north_1" arrivalPos="989.60" arrivalSpeed="15.03" duration="143.00" routeLength="1997.90" waitingTime="3.00" waitingCount="1" stopTime="0.00" timeLoss="14.36" rerouteNo="0" devices="tripinfo_flow_south_to_north.11" vType="motorcycleDist1" speedFactor="1.12" vaporized=""/>
    <tripinfo id="flow_north_to_south.2" depart="4.00" departLane="north_to_0_3" departPos="2.10" departSpeed="14.47" departDelay="0.87" arrival="164.00" arrivalLane="0_to_south_0" arrivalPos="989.60" arrivalSpeed="13.84" duration="160.00" routeLength="1997.90" waitingTime="14.00" waitingCount="1" stopTime="0.00" timeLoss="21.42" rerouteNo="0" devices="tripinfo_flow_north_to_south.2" vType="motorcycleDist1" speedFactor="1.04" vaporized=""/>
    <tripinfo id="flow_west_to_north.1" depart="6.00" departLane="west_to_0_1" departPos="3.10" departSpeed="13.12" departDelay="0.46" arrival="164.00" arrivalLane="0_to_north_0" arrivalPos="989.60" arrivalSpeed="13.07" duration="158.00" routeLength="1978.73" waitingTime="0.00" waitingCount="0" stopTime="0.00" timeLoss="5.91" rerouteNo="0" devices="tripinfo_flow_west_to_north.1" vType="cngDist3" speedFactor="0.94" vaporized=""/>
    <tripinfo id="flow_south_to_north.0" depart="0.00" departLane="south_to_0_1" departPos="2.10" departSpeed="14.31" departDelay="0.00" arrival="165.00" arrivalLane="0_to_north_1" arrivalPos="989.60" arrivalSpeed="14.16" duration="165.00" routeLength="1997.90" waitingTime="16.00" waitingCount="1" stopTime="0.00" timeLoss="25.32" rerouteNo="0" devices="tripinfo_flow_south_to_north.0" vType="motorcycleDist1" speedFactor="1.03" vaporized=""/>
    <tripinfo id="flow_west_to_north.3" depart="17.00" departLane="west_to_0_0" departPos="6.10" departSpeed="15.29" departDelay="0.39" arrival="165.00" arrivalLane="0_to_north_0" arrivalPos="989.60" arrivalSpeed="14.67" duration="148.00" routeLength="1978.43" waitingTime="0.00" waitingCount="0" stopTime="0.00" timeLoss="17.72" rerouteNo="0" devices="tripinfo_flow_west_to_north.3" vType="microbusDist3" speedFactor="1.10" vaporized=""/>
    <tripinfo id="flow_south_to_north.14" depart="24.00" departLane="south_to_0_3" departPos="2.10" departSpeed="14.34" departDelay="0.00" arrival="168.00" arrivalLane="0_to_north_1" arrivalPos="989.60" arrivalSpeed="13.95" duration="144.00" routeLength="1997.90" waitingTime="0.00" waitingCount="0" stopTime="0.00" timeLoss="4.62" rerouteNo="0" devices="tripinfo_flow_south_to_north.14" vType="motorcycleDist1" speedFactor="1.03" vaporized=""/>
    <tripinfo id="flow_south_to_north.3" depart="6.00" departLane="south_to_0_2" departPos="3.10" departSpeed="13.89" departDelay="0.86" arrival="170.00" arrivalLane="0_to_north_0" arrivalPos="989.60" arrivalSpeed="13.76" duration="164.00" routeLength="1996.90" waitingTime="9.00" waitingCount="1" stopTime="0.00" timeLoss="19.65" rerouteNo="0" devices="tripinfo_flow_south_to_north.3" vType="cngDist1" speedFactor="1.01" vaporized=""/>
    <tripinfo id="flow_bus_north_to_south.0" depart="0.00" departLane="north_to_0_0" departPos="12.10" departSpeed="13.89" departDelay="0.00" arrival="172.00" arrivalLane="0_to_south_0" arrivalPos="989.60" arrivalSpeed="13.60" duration="172.00" routeLength="1987.90" waitingTime="1.00" waitingCount="1" stopTime="15.00" timeLoss="13.04" rerouteNo="0" devices="tripinfo_flow_bus_north_to_south.0" vType="busDist1" speedFactor="1.00" vaporized=""/>
    <tripinfo id="flow_south_to_north.22" depart="38.00" departLane="south_to_0_1" departPos="2.10" departSpeed="15.71" departDelay="0.29" arrival="172.00" arrivalLane="0_to_north_3" arrivalPos="989.60" arrivalSpeed="15.21" duration="134.00" routeLength="1997.90" waitingTime="0.00" waitingCount="0" stopTime="0.00" timeLoss="5.88" rerouteNo="0" devices="tripinfo_flow_south_to_north.22" vType="motorcycleDist1" speedFactor="1.13" vaporized=""/>
    <tripinfo id="flow_south_to_north.1" depart="2.00" departLane="south_to_0_2" departPos="3.10" departSpeed="13.35" departDelay="0.29" arrival="173.00" arrivalLane="0_to_north_0" arrivalPos="989.60" arrivalSpeed="12.84" duration="171.00" routeLength="1996.90" waitingTime="11.00" waitingCount="1" stopTime="0.00" timeLoss="21.41" rerouteNo="0" devices="tripinfo_flow_south_to_north.1" vType="cngDist1" speedFactor="0.96" vaporized=""/>
    <tripinfo id="flow_south_to_north.8" depart="14.00" departLane="south_to_0_0" departPos="12.10" departSpeed="13.89" departDelay="0.29" arrival="173.00" arrivalLane="0_to_north_1" arrivalPos="989.60" arrivalSpeed="13.79" duration="159.00" routeLength="1987.90" waitingTime="3.00" waitingCount="1" stopTime="0.00" timeLoss="15.52" rerouteNo="0" devices="tripinfo_flow_south_to_north.8" vType="busDist1" speedFactor="1.00" vaporized=""/>
    <tripinfo id="flow_south_to_north.12" depart="21.00" departLane="south_to_0_1" departPos="5.10" departSpeed="13.71" departDelay="0.43" arrival="173.00" arrivalLane="0_to_north_2" arrivalPos="989.60" arrivalSpeed="13.51" duration="152.00" routeLength="1994.90" waitingTime="0.00" waitingCount="0" stopTime="0.00" timeLoss="5.54" rerouteNo="0" devices="tripinfo_flow_south_to_north.12" vType="carDist1" speedFactor="0.99" vaporized=""/>
    <tripinfo id="flow_bus_south_to_north.0" depart="0.00" departLane="south_to_0_0" departPos="12.10" departSpeed="13.89" departDelay="0.00" arrival="175.00" arrivalLane="0_to_north_0" arrivalPos="989.60" arrivalSpeed="13.75" duration="175.00" routeLength="1987.90" waitingTime="1.00" waitingCount="1" stopTime="15.00" timeLoss="16.72" rerouteNo="0" devices="tripinfo_flow_bus_south_to_north.0" vType="busDist1" speedFactor="1.00" vaporized=""/>
    <tripinfo id="flow_north_to_south.7" depart="11.00" departLane="north_to_0_2" departPos="5.10" departSpeed="14.16" departDelay="0.05" arrival="176.00" arrivalLane="0_to_south_0" arrivalPos="989.60" arrivalSpeed="13.79" duration="165.00" routeLength="1994.90" waitingTime="0.00" waitingCount="0" stopTime="0.00" timeLoss="23.58" rerouteNo="0" devices="tripinfo_flow_north_to_south.7" vType="carDist1" speedFactor="1.02" vaporized=""/>
    <tripinfo id="flow_south_to_north.16" depart="28.00" departLane="south_to_0_3" departPos="2.10" departSpeed="13.99" departDelay="0.58" arrival="176.00" arrivalLane="0_to_north_2" arrivalPos="989.60" arrivalSpeed="13.83" duration="148.00" routeLength="1997.90" waitingTime="0.00" waitingCount="0" stopTime="0.00" timeLoss="4.62" rerouteNo="0" devices="tripinfo_flow_south_to_north.16" vType="motorcycleDist1" speedFactor="1.01" vaporized=""/>
    <tripinfo id="flow_south_to_north.2" depart="4.00" departLane="south_to_0_3" departPos="6.10" departSpeed="12.87" departDelay="0.57" arrival="177.00" arrivalLane="0_to_north_0" arrivalPos="989.60" arrivalSpeed="12.48" duration="173.00" routeLength="1993.90" waitingTime="8.00" waitingCount="1" stopTime="0.00" timeLoss="17.22" rerouteNo="0" devices="tripinfo_flow_south_to_north.2" vType="microbusDist1" speedFactor="0.93" vaporized=""/>
    <tripinfo id="flow_north_to_east.0" depart="1.00" departLane="north_to_0_1" departPos="3.10" departSpeed="9.82" departDelay="1.00" arrival="178.00" arrivalLane="0_to_east_0" arrivalPos="983.20" arrivalSpeed="12.95" duration="177.00" routeLength="1981.42" waitingTime="14.00" waitingCount="2" stopTime="0.00" timeLoss="28.71" rerouteNo="0" devices="tripinfo_flow_north_to_east.0" vType="cngDist2" speedFactor="0.97" vaporized=""/>
    <tripinfo id="flow_south_to_north.21" depart="36.00" departLane="south_to_0_3" departPos="2.10" departSpeed="15.23" departDelay="0.01" arrival="178.00" arrivalLane="0_to_north_1" arrivalPos="989.60" arrivalSpeed="15.20" duration="142.00" routeLength="1997.90" waitingTime="0.00" waitingCount="0" stopTime="0.00" timeLoss="10.06" rerouteNo="0" devices="tripinfo_flow_south_to_north.21" vType="motorcycleDist1" speedFactor="1.10" vaporized=""/>
    <tripinfo id="flow_north_to_south.9" depart="15.00" departLane="north_to_0_2" departPos="3.10" departSpeed="13.56" departDelay="0.92" arrival="180.00" arrivalLane="0_to_south_0" arrivalPos="989.60" arrivalSpeed="13.17" duration="165.00" routeLength="1996.90" waitingTime="0.00" waitingCount="0" stopTime="0.00" timeLoss="17.24" rerouteNo="0" devices="tripinfo_flow_north_to_south.9" vType="cngDist1" speedFactor="0.98" vaporized=""/>
    <tripinfo id="flow_north_to_east.3" depart="9.00" departLane="north_to_0_1" departPos="2.10" departSpeed="15.58" departDelay="0.00" arrival="181.00" arrivalLane="0_to_east_0" arrivalPos="983.20" arrivalSpeed="15.55" duration="172.00" routeLength="1982.42" waitingTime="5.00" waitingCount="1" stopTime="0.00" timeLoss="43.69" rerouteNo="0" devices="tripinfo_flow_north_to_east.3" vType="motorcycleDist2" speedFactor="1.12" vaporized=""/>
    <tripinfo id="flow_north_to_south.17" depart="27.00" departLane="north_to_0_1" departPos="3.10" departSpeed="12.35" departDelay="0.40" arrival="181.00" arrivalLane="0_to_south_2" arrivalPos="989.60" arrivalSpeed="13.28" duration="154.00" routeLength="1996.90" waitingTime="0.00" waitingCount="0" stopTime="0.00" timeLoss="8.20" rerouteNo="0" devices="tripinfo_flow_north_to_south.17" vType="cngDist1" speedFactor="0.99" vaporized=""/>
    <tripinfo id="flow_north_to_south.11" depart="18.00" departLane="north_to_0_1" departPos="5.10" departSpeed="12.92" departDelay="0.79" arrival="182.00" arrivalLane="0_to_south_1" arrivalPos="989.60" arrivalSpeed="13.19" duration="164.00" routeLength="1994.90" waitingTime="0.00" waitingCount="0" stopTime="0.00" timeLoss="14.31" rerouteNo="0" devices="tripinfo_flow_north_to_south.11" vType="carDist1" speedFactor="0.96" vaporized=""/>
    <tripinfo id="flow_north_to_south.20" depart="32.00" departLane="north_to_0_3" departPos="2.10" departSpeed="14.77" departDelay="0.70" arrival="182.00" arrivalLane="0_to_south_2" arrivalPos="989.60" arrivalSpeed="14.14" duration="150.00" routeLength="1997.90" waitingTime="0.00" waitingCount="0" stopTime="0.00" timeLoss="14.71" rerouteNo="0" devices="tripinfo_flow_north_to_south.20" vType="motorcycleDist1" speedFactor="1.06" vaporized=""/>
    <tripinfo id="flow_north_to_south.5" depart="8.00" departLane="north_to_0_2" departPos="2.10" departSpeed="12.42" departDelay="0.18" arrival="183.00" arrivalLane="0_to_south_0" arrivalPos="989.60" arrivalSpeed="12.09" duration="175.00" routeLength="1997.90" waitingTime="0.00" waitingCount="0" stopTime="0.00" timeLoss="13.17" rerouteNo="0" devices="tripinfo_flow_north_to_south.5" vType="motorcycleDist1" speedFactor="0.89" vaporized=""/>
    <tripinfo id="flow_north_to_south.18" depart="29.00" departLane="north_to_0_3" departPos="2.10" departSpeed="14.68" departDelay="0.83" arrival="183.00" arrivalLane="0_to_south_3" arrivalPos="989.60" arrivalSpeed="14.26" duration="154.00" routeLength="1997.90" waitingTime="0.00" waitingCount="0" stopTime="0.00" timeLoss="17.01" rerouteNo="0" devices="tripinfo_flow_north_to_south.18" vType="motorcycleDist1" speedFactor="1.06" vaporized=""/>
    <tripinfo id="flow_south_to_north.10" depart="18.00" departLane="south_to_0_2" departPos="5.10" departSpeed="12.49" departDelay="0.86" arrival="184.00" arrivalLane="0_to_north_0" arrivalPos="989.60" arrivalSpeed="12.31" duration="166.00" routeLength="1994.90" waitingTime="0.00" waitingCount="0" stopTime="0.00" timeLoss="5.43" rerouteNo="0" devices="tripinfo_flow_south_to_north.10" vType="carDist1" speedFactor="0.90" vaporized=""/>
    <tripinfo id="flow_north_to_south.14" depart="22.00" departLane="north_to_0_2" departPos="2.10" departSpeed="14.20" departDelay="0.09" arrival="184.00" arrivalLane="0_to_south_1" arrivalPos="989.60" arrivalSpeed="13.91" duration="162.00" routeLength="1997.90" waitingTime="0.00" waitingCount="0" stopTime="0.00" timeLoss="20.33" rerouteNo="0" devices="tripinfo_flow_north_to_south.14" vType="motorcycleDist1" speedFactor="1.02" vaporized=""/>
    <tripinfo id="flow_south_to_north.13" depart="23.00" departLane="south_to_0_2" departPos="5.10" departSpeed="12.89" departDelay="0.72" arrival="184.00" arrivalLane="0_to_north_1" arrivalPos="989.60" arrivalSpeed="12.42" duration="161.00" routeLength="1994.90" waitingTime="0.00" waitingCount="0" stopTime="0.00" timeLoss="5.66" rerouteNo="0" devices="tripinfo_flow_south_to_north.13" vType="carDist1" speedFactor="0.93" vaporized=""/>
    <tripinfo id="flow_south_to_north.27" depart="47.00" departLane="south_to_0_2" departPos="2.10" departSpeed="16.67" departDelay="0.72" arrival="184.00" arrivalLane="0_to_north_2" arrivalPos="989.60" arrivalSpeed="15.98" duration="137.00" routeLength="1997.90" waitingTime="0.00" waitingCount="0" stopTime="0.00" timeLoss="16.42" rerouteNo="0" devices="tripinfo_flow_south_to_north.27" vType="motorcycleDist1" speedFactor="1.21" vaporized=""/>
    <tripinfo id="flow_north_to_south.6" depart="10.00" departLane="north_to_0_3" departPos="2.10" departSpeed="13.82" departDelay="0.61" arrival="186.00" arrivalLane="0_to_south_2" arrivalPos="989.60" arrivalSpeed="13.40" duration="176.00" routeLength="1997.90" waitingTime="0.00" waitingCount="0" stopTime="0.00" timeLoss="31.21" rerouteNo="0" devices="tripinfo_flow_north_to_south.6" vType="motorcycleDist1" speedFactor="0.99" vaporized=""/>
    <tripinfo id="flow_north_to_south.0" depart="0.00" departLane="north_to_0_1" departPos="2.60" departSpeed="11.11" departDelay="0.00" arrival="187.00" arrivalLane="0_to_south_0" arrivalPos="989.60" arrivalSpeed="10.46" duration="187.00" routeLength="1997.40" waitingTime="0.00" waitingCount="0" stopTime="0.00" timeLoss="6.97" rerouteNo="0" devices="tripinfo_flow_north_to_south.0" vType="rickshawDist1" speedFactor="1.08" vaporized=""/>
    <tripinfo id="flow_north_to_south.8" depart="13.00" departLane="north_to_0_3" departPos="2.10" departSpeed="14.42" departDelay="0.48" arrival="187.00" arrivalLane="0_to_south_3" arrivalPos="989.60" arrivalSpeed="13.87" duration="174.00" routeLength="1997.90" waitingTime="0.00" waitingCount="0" stopTime="0.00" timeLoss="34.75" rerouteNo="0" devices="tripinfo_flow_north_to_south.8" vType="motorcycleDist1" speedFactor="1.04" vaporized=""/>
    <tripinfo id="flow_north_to_south.10" depart="16.00" departLane="north_to_0_3" departPos="3.10" departSpeed="13.89" departDelay="0.35" arrival="188.00" arrivalLane="0_to_south_1" arrivalPos="989.60" arrivalSpeed="13.33" duration="172.00" routeLength="1996.90" waitingTime="0.00" waitingCount="0" stopTime="0.00" timeLoss="27.29" rerouteNo="0" devices="tripinfo_flow_north_to_south.10" vType="cngDist1" speedFactor="1.02" vaporized=""/>
    <tripinfo id="flow_north_to_south.12" depart="19.00" departLane="north_to_0_3" departPos="15.10" departSpeed="12.83" departDelay="0.22" arrival="190.00" arrivalLane="0_to_south_2" arrivalPos="989.60" arrivalSpeed="13.79" duration="171.00" routeLength="1984.90" waitingTime="0.00" waitingCount="0" stopTime="0.00" timeLoss="27.52" rerouteNo="0" devices="tripinfo_flow_north_to_south.12" vType="truckDist1" speedFactor="1.00" vaporized=""/>
    <tripinfo id="flow_south_to_north.18" depart="31.00" departLane="south_to_0_0" departPos="12.10" departSpeed="13.89" departDelay="0.15" arrival="190.00" arrivalLane="0_to_north_0" arrivalPos="989.60" arrivalSpeed="13.74" duration="159.00" routeLength="1987.90" waitingTime="0.00" waitingCount="0" stopTime="0.00" timeLoss="15.16" rerouteNo="0" devices="tripinfo_flow_south_to_north.18" vType="busDist1" speedFactor="1.00" vaporized=""/>
    <tripinfo id="flow_north_to_south.23" depart="36.00" departLane="north_to_0_3" departPos="2.10" departSpeed="13.48" departDelay="0.01" arrival="190.00" arrivalLane="0_to_south_1" arrivalPos="989.60" arrivalSpeed="13.20" duration="154.00" routeLength="1997.90" waitingTime="0.00" waitingCount="0" stopTime="0.00" timeLoss="5.04" rerouteNo="0" devices="tripinfo_flow_north_to_south.23" vType="motorcycleDist1" speedFactor="0.97" vaporized=""/>
    <tripinfo id="flow_north_to_south.3" depart="5.00" departLane="north_to_0_2" departPos="2.60" departSpeed="11.11" departDelay="0.31" arrival="191.00" arrivalLane="0_to_south_0" arrivalPos="989.60" arrivalSpeed="10.92" duration="186.00" routeLength="1997.40" waitingTime="0.00" waitingCount="0" stopTime="0.00" timeLoss="5.81" rerouteNo="0" devices="tripinfo_flow_north_to_south.3" vType="rickshawDist1" speedFactor="1.10" vaporized=""/>
    <tripinfo id="flow_north_to_south.28" depart="44.00" departLane="north_to_0_2" departPos="5.10" departSpeed="14.38" departDelay="0.18" arrival="191.00" arrivalLane="0_to_south_1" arrivalPos="989.60" arrivalSpeed="14.26" duration="147.00" routeLength="1994.90" waitingTime="0.00" waitingCount="0" stopTime="0.00" timeLoss="8.16" rerouteNo="0" devices="tripinfo_flow_north_to_south.28" vType="carDist1" speedFactor="1.04" vaporized=""/>
    <tripinfo id="flow_south_to_west.0" depart="1.00" departLane="south_to_0_1" departPos="2.60" departSpeed="9.68" departDelay="1.00" arrival="192.00" arrivalLane="0_to_west_0" arrivalPos="983.20" arrivalSpeed="10.59" duration="191.00" routeLength="1981.92" waitingTime="0.00" waitingCount="0" stopTime="0.00" timeLoss="12.31" rerouteNo="0" devices="tripinfo_flow_south_to_west.0" vType="rickshawDist3" speedFactor="1.20" vaporized=""/>
    <tripinfo id="flow_bus_north_to_south.1" depart="16.00" departLane="north_to_0_0" departPos="12.10" departSpeed="13.89" departDelay="0.35" arrival="192.00" arrivalLane="0_to_south_0" arrivalPos="989.60" arrivalSpeed="11.63" duration="176.00" routeLength="1987.90" waitingTime="0.00" waitingCount="0" stopTime="15.00" timeLoss="17.87" rerouteNo="0" devices="tripinfo_flow_bus_north_to_south.1" vType="busDist1" speedFactor="1.00" vaporized=""/>
    <tripinfo id="flow_north_to_south.16" depart="26.00" departLane="north_to_0_3" departPos="2.10" departSpeed="15.03" departDelay="0.96" arrival="192.00" arrivalLane="0_to_south_3" arrivalPos="989.60" arrivalSpeed="14.99" duration="166.00" routeLength="1997.90" waitingTime="0.00" waitingCount="0" stopTime="0.00" timeLoss="32.35" rerouteNo="0" devices="tripinfo_flow_north_to_south.16" vType="motorcycleDist1" speedFactor="1.08" vaporized=""/>
    <tripinfo id="flow_north_to_south.4" depart="7.00" departLane="north_to_0_3" departPos="2.60" departSpeed="11.11" departDelay="0.74" arrival="193.00" arrivalLane="0_to_south_2" arrivalPos="989.60" arrivalSpeed="10.77" duration="186.00" routeLength="1997.40" waitingTime="0.00" waitingCount="0" stopTime="0.00" timeLoss="5.86" rerouteNo="0" devices="tripinfo_flow_north_to_south.4" vType="rickshawDist1" speedFactor="1.03" vaporized=""/>
    <tripinfo id="flow_north_to_south.25" depart="40.00" departLane="north_to_0_3" departPos="2.10" departSpeed="14.34" departDelay="0.88" arrival="193.00" arrivalLane="0_to_south_1" arrivalPos="989.60" arrivalSpeed="13.64" duration="153.00" routeLength="1997.90" waitingTime="0.00" waitingCount="0" stopTime="0.00" timeLoss="13.02" rerouteNo="0" devices="tripinfo_flow_north_to_south.25" vType="motorcycleDist1" speedFactor="1.03" vaporized=""/>
    <tripinfo id="flow_north_to_south.29" depart="46.00" departLane="north_to_0_3" departPos="5.10" departSpeed="15.68" departDelay="0.62" arrival="193.00" arrivalLane="0_to_south_3" arrivalPos="989.60" arrivalSpeed="15.24" duration="147.00" routeLength="1994.90" waitingTime="0.00" waitingCount="0" stopTime="0.00" timeLoss="19.76" rerouteNo="0" devices="tripinfo_flow_north_to_south.29" vType="carDist1" speedFactor="1.13" vaporized=""/>
    <tripinfo id="flow_north_to_south.15" depart="24.00" departLane="north_to_0_3" departPos="2.10" departSpeed="12.76" departDelay="0.53" arrival="194.00" arrivalLane="0_to_south_0" arrivalPos="989.60" arrivalSpeed="12.24" duration="170.00" routeLength="1997.90" waitingTime="0.00" waitingCount="0" stopTime="0.00" timeLoss="13.36" rerouteNo="0" devices="tripinfo_flow_north_to_south.15" vType="motorcycleDist1" speedFactor="0.92" vaporized=""/>
    <tripinfo id="flow_north_to_south.26" depart="41.00" departLane="north_to_0_2" departPos="2.10" departSpeed="13.94" departDelay="0.31" arrival="194.00" arrivalLane="0_to_south_1" arrivalPos="989.60" arrivalSpeed="13.90" duration="153.00" routeLength="1997.90" waitingTime="0.00" waitingCount="0" stopTime="0.00" timeLoss="9.53" rerouteNo="0" devices="tripinfo_flow_north_to_south.26" vType="motorcycleDist1" speedFactor="1.00" vaporized=""/>
    <tripinfo id="flow_north_to_south.27" depart="43.00" departLane="north_to_0_3" departPos="2.10" departSpeed="14.41" departDelay="0.75" arrival="194.00" arrivalLane="0_to_south_2" arrivalPos="989.60" arrivalSpeed="12.26" duration="151.00" routeLength="1997.90" waitingTime="0.00" waitingCount="0" stopTime="0.00" timeLoss="12.26" rerouteNo="0" devices="tripinfo_flow_north_to_south.27" vType="motorcycleDist1" speedFactor="1.04" vaporized=""/>
    <tripinfo id="flow_north_to_south.36" depart="57.00" departLane="north_to_0_3" departPos="6.10" departSpeed="15.14" departDelay="0.66" arrival="195.00" arrivalLane="0_to_south_3" arrivalPos="989.60" arrivalSpeed="14.87" duration="138.00" routeLength="1993.90" waitingTime="0.00" waitingCount="0" stopTime="0.00" timeLoss="5.89" rerouteNo="0" devices="tripinfo_flow_north_to_south.36" vType="microbusDist1" speedFactor="1.09" vaporized=""/>
    <tripinfo id="flow_north_to_east.5" depart="15.00" departLane="north_to_0_1" departPos="3.10" departSpeed="8.40" departDelay="0.00" arrival="196.00" arrivalLane="0_to_east_0" arrivalPos="983.20" arrivalSpeed="12.64" duration="181.00" routeLength="1981.42" waitingTime="4.00" waitingCount="1" stopTime="0.00" timeLoss="28.18" rerouteNo="0" devices="tripinfo_flow_north_to_east.5" vType="cngDist2" speedFactor="0.94" vaporized=""/>
    <tripinfo id="flow_north_to_south.13" depart="21.00" departLane="north_to_0_3" departPos="2.10" departSpeed="13.33" departDelay="0.66" arrival="196.00" arrivalLane="0_to_south_0" arrivalPos="989.60" arrivalSpeed="12.68" duration="175.00" routeLength="1997.90" waitingTime="3.00" waitingCount="1" stopTime="0.00" timeLoss="24.37" rerouteNo="0" devices="tripinfo_flow_north_to_south.13" vType="motorcycleDist1" speedFactor="0.96" vaporized=""/>
    <tripinfo id="flow_north_to_south.37" depart="58.00" departLane="north_to_0_2" departPos="5.10" departSpeed="15.05" departDelay="0.10" arrival="196.00" arrivalLane="0_to_south_2" arrivalPos="989.60" arrivalSpeed="14.92" duration="138.00" routeLength="1994.90" waitingTime="0.00" waitingCount="0" stopTime="0.00" timeLoss="5.31" rerouteNo="0" devices="tripinfo_flow_north_to_south.37" vType="carDist1" speedFactor="1.08" vaporized=""/>
    <tripinfo id="flow_north_to_south.21" depart="33.00" departLane="north_to_0_1" departPos="12.10" departSpeed="11.24" departDelay="0.14" arrival="197.00" arrivalLane="0_to_south_1" arrivalPos="989.60" arrivalSpeed="13.73" duration="164.00" routeLength="1987.90" waitingTime="2.00" waitingCount="1" stopTime="0.00" timeLoss="20.39" rerouteNo="0" devices="tripinfo_flow_north_to_south.21" vType="busDist1" speedFactor="1.00" vaporized=""/>
    <tripinfo id="flow_north_to_east.10" depart="30.00" departLane="north_to_0_1" departPos="2.10" departSpeed="12.60" departDelay="0.00" arrival="198.00" arrivalLane="0_to_east_1" arrivalPos="983.20" arrivalSpeed="15.05" duration="168.00" routeLength="1982.42" waitingTime="0.00" waitingCount="0" stopTime="0.00" timeLoss="36.64" rerouteNo="0" devices="tripinfo_flow_north_to_east.10" vType="motorcycleDist2" speedFactor="1.10" vaporized=""/>
    <tripinfo id="flow_south_to_north.23" depart="40.00" departLane="south_to_0_3" departPos="3.10" departSpeed="13.09" departDelay="0.58" arrival="198.00" arrivalLane="0_to_north_0" arrivalPos="989.60" arrivalSpeed="12.76" duration="158.00" routeLength="1996.90" waitingTime="0.00" waitingCount="0" stopTime="0.00" timeLoss="4.94" rerouteNo="0" devices="tripinfo_flow_south_to_north.23" vType="cngDist1" speedFactor="0.94" vaporized=""/>
    <tripinfo id="flow_north_to_east.1" depart="3.00" departLane="north_to_0_1" departPos="2.60" departSpeed="10.51" departDelay="0.00" arrival="199.00" arrivalLane="0_to_east_0" arrivalPos="983.20" arrivalSpeed="10.49" duration="196.00" routeLength="1981.92" waitingTime="0.00" waitingCount="0" stopTime="0.00" timeLoss="16.09" rerouteNo="0" devices="tripinfo_flow_north_to_east.1" vType="rickshawDist2" speedFactor="0.90" vaporized=""/>
    <tripinfo id="flow_north_to_east.2" depart="6.00" departLane="north_to_0_1" departPos="2.60" departSpeed="11.11" departDelay="0.00" arrival="201.00" arrivalLane="0_to_east_0" arrivalPos="983.20" arrivalSpeed="11.05" duration="195.00" routeLength="1981.92" waitingTime="0.00" waitingCount="0" stopTime="0.00" timeLoss="15.22" rerouteNo="0" devices="tripinfo_flow_north_to_east.2" vType="rickshawDist2" speedFactor="1.01" vaporized=""/>
    <tripinfo id="flow_south_to_north.26" depart="45.00" departLane="south_to_0_3" departPos="5.10" departSpeed="13.26" departDelay="0.44" arrival="201.00" arrivalLane="0_to_north_0" arrivalPos="989.60" arrivalSpeed="13.08" duration="156.00" routeLength="1994.90" waitingTime="0.00" waitingCount="0" stopTime="0.00" timeLoss="4.67" rerouteNo="0" devices="tripinfo_flow_south_to_north.26" vType="carDist1" speedFactor="0.95" vaporized=""/>
    <tripinfo id="flow_south_to_north.28" depart="48.00" departLane="south_to_0_3" departPos="3.10" departSpeed="13.65" departDelay="0.01" arrival="201.00" arrivalLane="0_to_north_2" arrivalPos="989.60" arrivalSpeed="13.29" duration="153.00" routeLength="1996.90" waitingTime="0.00" waitingCount="0" stopTime="0.00" timeLoss="6.49" rerouteNo="0" devices="tripinfo_flow_south_to_north.28" vType="cngDist1" speedFactor="0.98" vaporized=""/>