<?xml version="1.0" encoding="UTF-8"?>

<!-- generated on 2025-04-22 23:45:53 by Eclipse SUMO GUI Version 1.21.0
<sumoConfiguration xmlns:xsi="http://www.w3.org/2001/XMLSchema-instance" xsi:noNamespaceSchemaLocation="http://sumo.dlr.de/xsd/sumoConfiguration.xsd">

    <input>
        <net-file value="E:\CE\MRT Traffic Management\lane_close_no_ricky\network.net.xml"/>
        <route-files value="E:\CE\MRT Traffic Management\lane_close_no_ricky\routes.rou.xml"/>
    </input>

    <output>
        <tripinfo-output value="E:\CE\MRT Traffic Management\lane_close_no_ricky\tripinfo.xml"/>
    </output>

    <time>
        <begin value="0"/>
        <end value="3600"/>
    </time>

</sumoConfiguration>
-->

<tripinfos xmlns:xsi="http://www.w3.org/2001/XMLSchema-instance" xsi:noNamespaceSchemaLocation="http://sumo.dlr.de/xsd/tripinfo_file.xsd">
    <tripinfo id="flow_east_to_east_rickshaw.0" depart="1.00" departLane="east_to_u_turn_1" departPos="2.10" departSpeed="12.15" departDelay="1.00" arrival="128.00" arrivalLane="u_turn_to_east_0" arrivalPos="900.00" arrivalSpeed="15.35" duration="127.00" routeLength="1802.58" waitingTime="0.00" waitingCount="0" stopTime="0.00" timeLoss="9.88" rerouteNo="0" devices="tripinfo_flow_east_to_east_rickshaw.0" vType="motorcycleDist2" speedFactor="1.12" vaporized=""/>
    <tripinfo id="flow_east_to_south.0" depart="0.00" departLane="east_to_u_turn_0" departPos="5.10" departSpeed="15.15" departDelay="0.00" arrival="136.00" arrivalLane="0_to_south_0" arrivalPos="989.60" arrivalSpeed="15.06" duration="136.00" routeLength="1980.03" waitingTime="0.00" waitingCount="0" stopTime="0.00" timeLoss="3.87" rerouteNo="0" devices="tripinfo_flow_east_to_south.0" vType="carDist2" speedFactor="1.09" vaporized=""/>
    <tripinfo id="flow_east_to_east_rickshaw.2" depart="16.00" departLane="east_to_u_turn_1" departPos="2.10" departSpeed="10.78" departDelay="0.00" arrival="141.00" arrivalLane="u_turn_to_east_0" arrivalPos="900.00" arrivalSpeed="16.03" duration="125.00" routeLength="1802.58" waitingTime="0.00" waitingCount="0" stopTime="0.00" timeLoss="12.44" rerouteNo="0" devices="tripinfo_flow_east_to_east_rickshaw.2" vType="motorcycleDist2" speedFactor="1.17" vaporized=""/>
    <tripinfo id="flow_east_to_east.0" depart="0.00" departLane="east_to_u_turn_1" departPos="3.10" departSpeed="13.35" departDelay="0.00" arrival="145.00" arrivalLane="u_turn_to_east_1" arrivalPos="900.00" arrivalSpeed="12.99" duration="145.00" routeLength="1801.58" waitingTime="0.00" waitingCount="0" stopTime="0.00" timeLoss="8.00" rerouteNo="0" devices="tripinfo_flow_east_to_east.0" vType="cngDist2" speedFactor="0.96" vaporized=""/>
    <tripinfo id="flow_east_to_east_rickshaw.1" depart="8.00" departLane="east_to_u_turn_1" departPos="3.10" departSpeed="13.89" departDelay="0.00" arrival="146.00" arrivalLane="u_turn_to_east_1" arrivalPos="900.00" arrivalSpeed="13.70" duration="138.00" routeLength="1801.58" waitingTime="0.00" waitingCount="0" stopTime="0.00" timeLoss="7.23" rerouteNo="0" devices="tripinfo_flow_east_to_east_rickshaw.1" vType="cngDist2" speedFactor="1.08" vaporized=""/>
    <tripinfo id="flow_south_to_north.4" depart="8.00" departLane="south_to_0_1" departPos="2.10" departSpeed="15.72" departDelay="0.00" arrival="149.00" arrivalLane="0_to_north_0" arrivalPos="989.60" arrivalSpeed="15.22" duration="141.00" routeLength="1997.90" waitingTime="5.00" waitingCount="1" stopTime="0.00" timeLoss="13.86" rerouteNo="0" devices="tripinfo_flow_south_to_north.4" vType="motorcycleDist1" speedFactor="1.13" vaporized=""/>
    <tripinfo id="flow_east_to_south.1" depart="6.00" departLane="east_to_u_turn_0" departPos="2.10" departSpeed="14.33" departDelay="0.00" arrival="151.00" arrivalLane="0_to_south_0" arrivalPos="989.60" arrivalSpeed="14.14" duration="145.00" routeLength="1983.03" waitingTime="0.00" waitingCount="0" stopTime="0.00" timeLoss="5.71" rerouteNo="0" devices="tripinfo_flow_east_to_south.1" vType="motorcycleDist2" speedFactor="1.03" vaporized=""/>
    <tripinfo id="flow_north_to_south.9" depart="17.00" departLane="north_to_0_2" departPos="6.10" departSpeed="15.29" departDelay="0.39" arrival="152.00" arrivalLane="0_to_south_1" arrivalPos="989.60" arrivalSpeed="15.22" duration="135.00" routeLength="1993.90" waitingTime="0.00" waitingCount="0" stopTime="0.00" timeLoss="4.46" rerouteNo="0" devices="tripinfo_flow_north_to_south.9" vType="microbusDist1" speedFactor="1.10" vaporized=""/>
    <tripinfo id="flow_north_to_south.2" depart="4.00" departLane="north_to_0_2" departPos="5.10" departSpeed="15.04" departDelay="0.31" arrival="153.00" arrivalLane="0_to_south_0" arrivalPos="989.60" arrivalSpeed="14.78" duration="149.00" routeLength="1994.90" waitingTime="7.00" waitingCount="1" stopTime="0.00" timeLoss="15.52" rerouteNo="0" devices="tripinfo_flow_north_to_south.2" vType="carDist1" speedFactor="1.08" vaporized=""/>
    <tripinfo id="flow_south_to_north.3" depart="6.00" departLane="south_to_0_0" departPos="6.10" departSpeed="14.03" departDelay="0.00" arrival="154.00" arrivalLane="0_to_north_0" arrivalPos="989.60" arrivalSpeed="13.95" duration="148.00" routeLength="1993.90" waitingTime="0.00" waitingCount="0" stopTime="0.00" timeLoss="5.88" rerouteNo="0" devices="tripinfo_flow_south_to_north.3" vType="microbusDist1" speedFactor="1.01" vaporized=""/>
    <tripinfo id="flow_south_to_west.0" depart="1.00" departLane="south_to_0_0" departPos="2.10" departSpeed="12.80" departDelay="1.00" arrival="156.00" arrivalLane="0_to_west_0" arrivalPos="986.40" arrivalSpeed="14.46" duration="155.00" routeLength="1982.93" waitingTime="4.00" waitingCount="1" stopTime="0.00" timeLoss="17.70" rerouteNo="0" devices="tripinfo_flow_south_to_west.0" vType="motorcycleDist3" speedFactor="1.05" vaporized=""/>
    <tripinfo id="flow_north_to_south.3" depart="6.00" departLane="north_to_0_1" departPos="2.10" departSpeed="14.01" departDelay="0.46" arrival="157.00" arrivalLane="0_to_south_0" arrivalPos="989.60" arrivalSpeed="13.87" duration="151.00" routeLength="1997.90" waitingTime="0.00" waitingCount="0" stopTime="0.00" timeLoss="7.48" rerouteNo="0" devices="tripinfo_flow_north_to_south.3" vType="motorcycleDist1" speedFactor="1.01" vaporized=""/>
    <tripinfo id="flow_north_to_east.0" depart="1.00" departLane="north_to_0_0" departPos="2.10" departSpeed="11.91" departDelay="1.00" arrival="158.00" arrivalLane="u_turn_to_east_0" arrivalPos="900.00" arrivalSpeed="13.69" duration="157.00" routeLength="1983.03" waitingTime="1.00" waitingCount="1" stopTime="0.00" timeLoss="15.42" rerouteNo="0" devices="tripinfo_flow_north_to_east.0" vType="motorcycleDist2" speedFactor="1.02" vaporized=""/>
    <tripinfo id="flow_north_to_east.1" depart="3.00" departLane="north_to_0_0" departPos="2.10" departSpeed="14.47" departDelay="0.00" arrival="158.00" arrivalLane="u_turn_to_east_1" arrivalPos="900.00" arrivalSpeed="14.19" duration="155.00" routeLength="1983.03" waitingTime="1.00" waitingCount="1" stopTime="0.00" timeLoss="16.74" rerouteNo="0" devices="tripinfo_flow_north_to_east.1" vType="motorcycleDist2" speedFactor="1.04" vaporized=""/>
    <tripinfo id="flow_south_to_north.5" depart="10.00" departLane="south_to_0_2" departPos="3.10" departSpeed="13.85" departDelay="0.00" arrival="158.00" arrivalLane="0_to_north_1" arrivalPos="989.60" arrivalSpeed="13.37" duration="148.00" routeLength="1996.90" waitingTime="0.00" waitingCount="0" stopTime="0.00" timeLoss="3.31" rerouteNo="0" devices="tripinfo_flow_south_to_north.5" vType="cngDist1" speedFactor="1.00" vaporized=""/>
    <tripinfo id="flow_south_to_north.6" depart="12.00" departLane="south_to_0_0" departPos="5.10" departSpeed="14.16" departDelay="0.00" arrival="158.00" arrivalLane="0_to_north_0" arrivalPos="989.60" arrivalSpeed="13.78" duration="146.00" routeLength="1994.90" waitingTime="0.00" waitingCount="0" stopTime="0.00" timeLoss="4.51" rerouteNo="0" devices="tripinfo_flow_south_to_north.6" vType="carDist1" speedFactor="1.02" vaporized=""/>
    <tripinfo id="flow_south_to_north.0" depart="0.00" departLane="south_to_0_0" departPos="3.10" departSpeed="13.89" departDelay="0.00" arrival="160.00" arrivalLane="0_to_north_0" arrivalPos="989.60" arrivalSpeed="13.37" duration="160.00" routeLength="1996.90" waitingTime="5.00" waitingCount="1" stopTime="0.00" timeLoss="15.45" rerouteNo="0" devices="tripinfo_flow_south_to_north.0" vType="cngDist1" speedFactor="1.10" vaporized=""/>
    <tripinfo id="flow_north_to_south.7" depart="13.00" departLane="north_to_0_2" departPos="2.10" departSpeed="14.42" departDelay="0.08" arrival="160.00" arrivalLane="0_to_south_0" arrivalPos="989.60" arrivalSpeed="13.91" duration="147.00" routeLength="1997.90" waitingTime="0.00" waitingCount="0" stopTime="0.00" timeLoss="7.84" rerouteNo="0" devices="tripinfo_flow_north_to_south.7" vType="motorcycleDist1" speedFactor="1.04" vaporized=""/>
    <tripinfo id="flow_south_to_west.1" depart="7.00" departLane="south_to_0_0" departPos="2.10" departSpeed="13.09" departDelay="1.46" arrival="161.00" arrivalLane="0_to_west_0" arrivalPos="986.40" arrivalSpeed="14.25" duration="154.00" routeLength="1982.93" waitingTime="0.00" waitingCount="0" stopTime="0.00" timeLoss="13.44" rerouteNo="0" devices="tripinfo_flow_south_to_west.1" vType="motorcycleDist3" speedFactor="1.03" vaporized=""/>
    <tripinfo id="flow_north_to_south.0" depart="0.00" departLane="north_to_0_0" departPos="5.10" departSpeed="13.03" departDelay="0.00" arrival="162.00" arrivalLane="0_to_south_0" arrivalPos="989.60" arrivalSpeed="12.93" duration="162.00" routeLength="1994.90" waitingTime="1.00" waitingCount="1" stopTime="0.00" timeLoss="8.58" rerouteNo="0" devices="tripinfo_flow_north_to_south.0" vType="carDist1" speedFactor="0.94" vaporized=""/>
    <tripinfo id="flow_south_to_north.13" depart="26.00" departLane="south_to_0_2" departPos="2.10" departSpeed="15.10" departDelay="0.00" arrival="162.00" arrivalLane="0_to_north_1" arrivalPos="989.60" arrivalSpeed="14.96" duration="136.00" routeLength="1997.90" waitingTime="0.00" waitingCount="0" stopTime="0.00" timeLoss="3.09" rerouteNo="0" devices="tripinfo_flow_south_to_north.13" vType="motorcycleDist1" speedFactor="1.09" vaporized=""/>
    <tripinfo id="flow_north_to_south.1" depart="2.00" departLane="north_to_0_1" departPos="6.10" departSpeed="12.87" departDelay="0.15" arrival="165.00" arrivalLane="0_to_south_0" arrivalPos="989.60" arrivalSpeed="12.83" duration="163.00" routeLength="1993.90" waitingTime="0.00" waitingCount="0" stopTime="0.00" timeLoss="7.30" rerouteNo="0" devices="tripinfo_flow_north_to_south.1" vType="microbusDist1" speedFactor="0.93" vaporized=""/>
    <tripinfo id="flow_south_to_north.8" depart="16.00" departLane="south_to_0_2" departPos="3.10" departSpeed="13.89" departDelay="0.00" arrival="165.00" arrivalLane="0_to_north_1" arrivalPos="989.60" arrivalSpeed="13.53" duration="149.00" routeLength="1996.90" waitingTime="0.00" waitingCount="0" stopTime="0.00" timeLoss="4.78" rerouteNo="0" devices="tripinfo_flow_south_to_north.8" vType="cngDist1" speedFactor="1.03" vaporized=""/>
    <tripinfo id="flow_south_to_north.2" depart="4.00" departLane="south_to_0_2" departPos="5.10" departSpeed="13.00" departDelay="0.00" arrival="166.00" arrivalLane="0_to_north_0" arrivalPos="989.60" arrivalSpeed="12.76" duration="162.00" routeLength="1994.90" waitingTime="0.00" waitingCount="0" stopTime="0.00" timeLoss="7.98" rerouteNo="0" devices="tripinfo_flow_south_to_north.2" vType="carDist1" speedFactor="0.94" vaporized=""/>
    <tripinfo id="flow_north_to_south.5" depart="10.00" departLane="north_to_0_2" departPos="2.10" departSpeed="13.45" departDelay="0.77" arrival="166.00" arrivalLane="0_to_south_0" arrivalPos="989.60" arrivalSpeed="12.88" duration="156.00" routeLength="1997.90" waitingTime="0.00" waitingCount="0" stopTime="0.00" timeLoss="7.31" rerouteNo="0" devices="tripinfo_flow_north_to_south.5" vType="motorcycleDist1" speedFactor="0.97" vaporized=""/>
    <tripinfo id="flow_south_to_west.3" depart="17.00" departLane="south_to_0_0" departPos="2.10" departSpeed="14.56" departDelay="0.39" arrival="166.00" arrivalLane="0_to_west_0" arrivalPos="986.40" arrivalSpeed="14.53" duration="149.00" routeLength="1982.93" waitingTime="0.00" waitingCount="0" stopTime="0.00" timeLoss="10.98" rerouteNo="0" devices="tripinfo_flow_south_to_west.3" vType="motorcycleDist3" speedFactor="1.05" vaporized=""/>
    <tripinfo id="flow_north_to_south.11" depart="21.00" departLane="north_to_0_2" departPos="15.10" departSpeed="13.87" departDelay="0.69" arrival="166.00" arrivalLane="0_to_south_1" arrivalPos="989.60" arrivalSpeed="13.70" duration="145.00" routeLength="1984.90" waitingTime="0.00" waitingCount="0" stopTime="0.00" timeLoss="1.46" rerouteNo="0" devices="tripinfo_flow_north_to_south.11" vType="truckDist1" speedFactor="1.00" vaporized=""/>
    <tripinfo id="flow_south_to_north.10" depart="20.00" departLane="south_to_0_2" departPos="3.10" departSpeed="13.89" departDelay="0.00" arrival="168.00" arrivalLane="0_to_north_1" arrivalPos="989.60" arrivalSpeed="13.65" duration="148.00" routeLength="1996.90" waitingTime="0.00" waitingCount="0" stopTime="0.00" timeLoss="3.53" rerouteNo="0" devices="tripinfo_flow_south_to_north.10" vType="cngDist1" speedFactor="1.06" vaporized=""/>
    <tripinfo id="flow_south_to_north.1" depart="2.00" departLane="south_to_0_1" departPos="2.10" departSpeed="12.51" departDelay="0.00" arrival="170.00" arrivalLane="0_to_north_0" arrivalPos="989.60" arrivalSpeed="12.00" duration="168.00" routeLength="1997.90" waitingTime="0.00" waitingCount="0" stopTime="0.00" timeLoss="7.98" rerouteNo="0" devices="tripinfo_flow_south_to_north.1" vType="motorcycleDist1" speedFactor="0.90" vaporized=""/>
    <tripinfo id="flow_north_to_east.3" depart="9.00" departLane="north_to_0_1" departPos="3.10" departSpeed="13.89" departDelay="0.00" arrival="170.00" arrivalLane="u_turn_to_east_1" arrivalPos="900.00" arrivalSpeed="13.43" duration="161.00" routeLength="1987.20" waitingTime="2.00" waitingCount="1" stopTime="0.00" timeLoss="17.07" rerouteNo="0" devices="tripinfo_flow_north_to_east.3" vType="cngDist2" speedFactor="1.06" vaporized=""/>
    <tripinfo id="flow_north_to_south.13" depart="24.00" departLane="north_to_0_0" departPos="2.10" departSpeed="14.66" departDelay="0.00" arrival="171.00" arrivalLane="0_to_south_0" arrivalPos="989.60" arrivalSpeed="14.02" duration="147.00" routeLength="1997.90" waitingTime="0.00" waitingCount="0" stopTime="0.00" timeLoss="10.04" rerouteNo="0" devices="tripinfo_flow_north_to_south.13" vType="motorcycleDist1" speedFactor="1.06" vaporized=""/>
    <tripinfo id="flow_north_to_south.14" depart="26.00" departLane="north_to_0_2" departPos="12.10" departSpeed="13.41" departDelay="0.16" arrival="171.00" arrivalLane="0_to_south_2" arrivalPos="989.60" arrivalSpeed="13.62" duration="145.00" routeLength="1987.90" waitingTime="0.00" waitingCount="0" stopTime="0.00" timeLoss="1.70" rerouteNo="0" devices="tripinfo_flow_north_to_south.14" vType="busDist1" speedFactor="1.00" vaporized=""/>
    <tripinfo id="flow_south_to_west.2" depart="13.00" departLane="south_to_0_0" departPos="2.10" departSpeed="13.06" departDelay="1.92" arrival="172.00" arrivalLane="0_to_west_0" arrivalPos="986.40" arrivalSpeed="12.71" duration="159.00" routeLength="1982.93" waitingTime="0.00" waitingCount="0" stopTime="0.00" timeLoss="6.15" rerouteNo="0" devices="tripinfo_flow_south_to_west.2" vType="motorcycleDist3" speedFactor="0.94" vaporized=""/>
    <tripinfo id="flow_north_to_south.18" depart="34.00" departLane="north_to_0_1" departPos="5.10" departSpeed="15.89" departDelay="0.77" arrival="172.00" arrivalLane="0_to_south_1" arrivalPos="989.60" arrivalSpeed="15.70" duration="138.00" routeLength="1994.90" waitingTime="0.00" waitingCount="0" stopTime="0.00" timeLoss="12.02" rerouteNo="0" devices="tripinfo_flow_north_to_south.18" vType="carDist1" speedFactor="1.14" vaporized=""/>
    <tripinfo id="flow_north_to_south.4" depart="8.00" departLane="north_to_0_2" departPos="2.10" departSpeed="12.42" departDelay="0.62" arrival="174.00" arrivalLane="0_to_south_0" arrivalPos="989.60" arrivalSpeed="12.03" duration="166.00" routeLength="1997.90" waitingTime="0.00" waitingCount="0" stopTime="0.00" timeLoss="4.87" rerouteNo="0" devices="tripinfo_flow_north_to_south.4" vType="motorcycleDist1" speedFactor="0.89" vaporized=""/>
    <tripinfo id="flow_north_to_east.4" depart="12.00" departLane="north_to_0_0" departPos="2.10" departSpeed="14.31" departDelay="0.00" arrival="174.00" arrivalLane="u_turn_to_east_0" arrivalPos="900.00" arrivalSpeed="13.91" duration="162.00" routeLength="1983.03" waitingTime="0.00" waitingCount="0" stopTime="0.00" timeLoss="22.68" rerouteNo="0" devices="tripinfo_flow_north_to_east.4" vType="motorcycleDist2" speedFactor="1.03" vaporized=""/>
    <tripinfo id="flow_north_to_south.12" depart="23.00" departLane="north_to_0_2" departPos="2.10" departSpeed="14.20" departDelay="0.85" arrival="174.00" arrivalLane="0_to_south_1" arrivalPos="989.60" arrivalSpeed="13.67" duration="151.00" routeLength="1997.90" waitingTime="0.00" waitingCount="0" stopTime="0.00" timeLoss="10.27" rerouteNo="0" devices="tripinfo_flow_north_to_south.12" vType="motorcycleDist1" speedFactor="1.02" vaporized=""/>
    <tripinfo id="flow_south_to_north.14" depart="28.00" departLane="south_to_0_0" departPos="12.10" departSpeed="13.89" departDelay="0.00" arrival="174.00" arrivalLane="0_to_north_0" arrivalPos="989.60" arrivalSpeed="13.67" duration="146.00" routeLength="1987.90" waitingTime="0.00" waitingCount="0" stopTime="0.00" timeLoss="2.47" rerouteNo="0" devices="tripinfo_flow_south_to_north.14" vType="busDist1" speedFactor="1.00" vaporized=""/>
    <tripinfo id="flow_north_to_south.15" depart="28.00" departLane="north_to_0_1" departPos="12.10" departSpeed="13.03" departDelay="0.31" arrival="174.00" arrivalLane="0_to_south_2" arrivalPos="989.60" arrivalSpeed="13.89" duration="146.00" routeLength="1987.90" waitingTime="0.00" waitingCount="0" stopTime="0.00" timeLoss="2.23" rerouteNo="0" devices="tripinfo_flow_north_to_south.15" vType="busDist1" speedFactor="1.00" vaporized=""/>
    <tripinfo id="flow_north_to_east.5" depart="15.00" departLane="north_to_0_0" departPos="6.10" departSpeed="12.53" departDelay="0.00" arrival="176.00" arrivalLane="u_turn_to_east_0" arrivalPos="900.00" arrivalSpeed="13.78" duration="161.00" routeLength="1979.03" waitingTime="0.00" waitingCount="0" stopTime="0.00" timeLoss="20.58" rerouteNo="0" devices="tripinfo_flow_north_to_east.5" vType="microbusDist2" speedFactor="1.02" vaporized=""/>
    <tripinfo id="flow_north_to_south.17" depart="32.00" departLane="north_to_0_2" departPos="2.10" departSpeed="14.62" departDelay="0.62" arrival="176.00" arrivalLane="0_to_south_2" arrivalPos="989.60" arrivalSpeed="14.53" duration="144.00" routeLength="1997.90" waitingTime="0.00" waitingCount="0" stopTime="0.00" timeLoss="6.54" rerouteNo="0" devices="tripinfo_flow_north_to_south.17" vType="motorcycleDist1" speedFactor="1.05" vaporized=""/>
    <tripinfo id="flow_south_to_north.20" depart="40.00" departLane="south_to_0_2" departPos="2.10" departSpeed="15.23" departDelay="0.00" arrival="176.00" arrivalLane="0_to_north_1" arrivalPos="989.60" arrivalSpeed="15.16" duration="136.00" routeLength="1997.90" waitingTime="0.00" waitingCount="0" stopTime="0.00" timeLoss="4.69" rerouteNo="0" devices="tripinfo_flow_south_to_north.20" vType="motorcycleDist1" speedFactor="1.10" vaporized=""/>
    <tripinfo id="flow_south_to_north.11" depart="22.00" departLane="south_to_0_0" departPos="2.10" departSpeed="13.33" departDelay="0.00" arrival="177.00" arrivalLane="0_to_north_0" arrivalPos="989.60" arrivalSpeed="13.18" duration="155.00" routeLength="1997.90" waitingTime="0.00" waitingCount="0" stopTime="0.00" timeLoss="4.74" rerouteNo="0" devices="tripinfo_flow_south_to_north.11" vType="motorcycleDist1" speedFactor="0.96" vaporized=""/>
    <tripinfo id="flow_north_to_south.16" depart="30.00" departLane="north_to_0_1" departPos="12.10" departSpeed="13.89" departDelay="0.46" arrival="177.00" arrivalLane="0_to_south_1" arrivalPos="989.60" arrivalSpeed="13.74" duration="147.00" routeLength="1987.90" waitingTime="0.00" waitingCount="0" stopTime="0.00" timeLoss="3.59" rerouteNo="0" devices="tripinfo_flow_north_to_south.16" vType="busDist1" speedFactor="1.00" vaporized=""/>
    <tripinfo id="flow_north_to_south.22" depart="41.00" departLane="north_to_0_1" departPos="6.10" departSpeed="13.99" departDelay="0.39" arrival="177.00" arrivalLane="0_to_south_2" arrivalPos="989.60" arrivalSpeed="15.98" duration="136.00" routeLength="1993.90" waitingTime="0.00" waitingCount="0" stopTime="0.00" timeLoss="14.05" rerouteNo="0" devices="tripinfo_flow_north_to_south.22" vType="microbusDist1" speedFactor="1.18" vaporized=""/>
    <tripinfo id="flow_south_to_north.15" depart="30.00" departLane="south_to_0_1" departPos="2.10" departSpeed="13.91" departDelay="0.00" arrival="179.00" arrivalLane="0_to_north_0" arrivalPos="989.60" arrivalSpeed="13.38" duration="149.00" routeLength="1997.90" waitingTime="0.00" waitingCount="0" stopTime="0.00" timeLoss="4.98" rerouteNo="0" devices="tripinfo_flow_south_to_north.15" vType="motorcycleDist1" speedFactor="1.00" vaporized=""/>
    <tripinfo id="flow_north_to_south.8" depart="15.00" departLane="north_to_0_1" departPos="2.10" departSpeed="12.51" departDelay="0.23" arrival="180.00" arrivalLane="0_to_south_0" arrivalPos="989.60" arrivalSpeed="12.35" duration="165.00" routeLength="1997.90" waitingTime="0.00" waitingCount="0" stopTime="0.00" timeLoss="4.94" rerouteNo="0" devices="tripinfo_flow_north_to_south.8" vType="motorcycleDist1" speedFactor="0.90" vaporized=""/>
    <tripinfo id="flow_south_to_north.21" depart="42.00" departLane="south_to_0_0" departPos="2.10" departSpeed="15.71" departDelay="0.00" arrival="180.00" arrivalLane="0_to_north_1" arrivalPos="989.60" arrivalSpeed="15.02" duration="138.00" routeLength="1997.90" waitingTime="0.00" waitingCount="0" stopTime="0.00" timeLoss="10.80" rerouteNo="0" devices="tripinfo_flow_south_to_north.21" vType="motorcycleDist1" speedFactor="1.13" vaporized=""/>
    <tripinfo id="flow_south_to_north.9" depart="18.00" departLane="south_to_0_1" departPos="6.10" departSpeed="12.49" departDelay="0.00" arrival="181.00" arrivalLane="0_to_north_0" arrivalPos="989.60" arrivalSpeed="12.24" duration="163.00" routeLength="1993.90" waitingTime="0.00" waitingCount="0" stopTime="0.00" timeLoss="2.73" rerouteNo="0" devices="tripinfo_flow_south_to_north.9" vType="microbusDist1" speedFactor="0.90" vaporized=""/>
    <tripinfo id="flow_north_to_east.7" depart="21.00" departLane="north_to_0_0" departPos="5.10" departSpeed="13.71" departDelay="0.00" arrival="181.00" arrivalLane="u_turn_to_east_0" arrivalPos="900.00" arrivalSpeed="13.58" duration="160.00" routeLength="1980.03" waitingTime="0.00" waitingCount="0" stopTime="0.00" timeLoss="14.31" rerouteNo="0" devices="tripinfo_flow_north_to_east.7" vType="carDist2" speedFactor="0.99" vaporized=""/>
    <tripinfo id="flow_north_to_south.20" depart="37.00" departLane="north_to_0_1" departPos="2.10" departSpeed="14.37" departDelay="0.08" arrival="181.00" arrivalLane="0_to_south_1" arrivalPos="989.60" arrivalSpeed="13.77" duration="144.00" routeLength="1997.90" waitingTime="0.00" waitingCount="0" stopTime="0.00" timeLoss="4.77" rerouteNo="0" devices="tripinfo_flow_north_to_south.20" vType="motorcycleDist1" speedFactor="1.03" vaporized=""/>
    <tripinfo id="flow_east_to_east.1" depart="15.00" departLane="east_to_u_turn_1" departPos="5.10" departSpeed="12.18" departDelay="0.60" arrival="182.00" arrivalLane="u_turn_to_east_0" arrivalPos="900.00" arrivalSpeed="11.73" duration="167.00" routeLength="1799.58" waitingTime="12.00" waitingCount="1" stopTime="0.00" timeLoss="18.40" rerouteNo="0" devices="tripinfo_flow_east_to_east.1" vType="carDist2" speedFactor="0.88" vaporized=""/>
    <tripinfo id="flow_south_to_north.12" depart="24.00" departLane="south_to_0_1" departPos="5.10" departSpeed="12.89" departDelay="0.00" arrival="183.00" arrivalLane="0_to_north_0" arrivalPos="989.60" arrivalSpeed="12.39" duration="159.00" routeLength="1994.90" waitingTime="0.00" waitingCount="0" stopTime="0.00" timeLoss="3.33" rerouteNo="0" devices="tripinfo_flow_south_to_north.12" vType="carDist1" speedFactor="0.93" vaporized=""/>
    <tripinfo id="flow_south_to_north.23" depart="46.00" departLane="south_to_0_1" departPos="6.10" departSpeed="15.32" departDelay="0.00" arrival="184.00" arrivalLane="0_to_north_1" arrivalPos="989.60" arrivalSpeed="14.96" duration="138.00" routeLength="1993.90" waitingTime="0.00" waitingCount="0" stopTime="0.00" timeLoss="6.99" rerouteNo="0" devices="tripinfo_flow_south_to_north.23" vType="microbusDist1" speedFactor="1.10" vaporized=""/>
    <tripinfo id="flow_north_to_east.6" depart="18.00" departLane="north_to_0_0" departPos="5.10" departSpeed="13.36" departDelay="0.00" arrival="185.00" arrivalLane="u_turn_to_east_0" arrivalPos="900.00" arrivalSpeed="12.84" duration="167.00" routeLength="1980.03" waitingTime="0.00" waitingCount="0" stopTime="0.00" timeLoss="17.13" rerouteNo="0" devices="tripinfo_flow_north_to_east.6" vType="carDist2" speedFactor="0.96" vaporized=""/>
    <tripinfo id="flow_north_to_east.9" depart="27.00" departLane="north_to_0_0" departPos="2.10" departSpeed="13.86" departDelay="0.00" arrival="185.00" arrivalLane="u_turn_to_east_1" arrivalPos="900.00" arrivalSpeed="13.75" duration="158.00" routeLength="1983.03" waitingTime="0.00" waitingCount="0" stopTime="0.00" timeLoss="13.75" rerouteNo="0" devices="tripinfo_flow_north_to_east.9" vType="motorcycleDist2" speedFactor="1.00" vaporized=""/>
    <tripinfo id="flow_north_to_east.8" depart="25.00" departLane="north_to_0_0" departPos="2.10" departSpeed="13.22" departDelay="1.00" arrival="186.00" arrivalLane="u_turn_to_east_1" arrivalPos="900.00" arrivalSpeed="15.02" duration="161.00" routeLength="1983.03" waitingTime="0.00" waitingCount="0" stopTime="0.00" timeLoss="32.81" rerouteNo="0" devices="tripinfo_flow_north_to_east.8" vType="motorcycleDist2" speedFactor="1.12" vaporized=""/>
    <tripinfo id="flow_south_to_north.22" depart="44.00" departLane="south_to_0_2" departPos="5.10" departSpeed="14.34" departDelay="0.00" arrival="186.00" arrivalLane="0_to_north_0" arrivalPos="989.60" arrivalSpeed="14.27" duration="142.00" routeLength="1994.90" waitingTime="0.00" waitingCount="0" stopTime="0.00" timeLoss="2.49" rerouteNo="0" devices="tripinfo_flow_south_to_north.22" vType="carDist1" speedFactor="1.03" vaporized=""/>
    <tripinfo id="flow_north_to_south.6" depart="12.00" departLane="north_to_0_1" departPos="6.10" departSpeed="11.60" departDelay="0.92" arrival="187.00" arrivalLane="0_to_south_0" arrivalPos="989.60" arrivalSpeed="11.36" duration="175.00" routeLength="1993.90" waitingTime="0.00" waitingCount="0" stopTime="0.00" timeLoss="2.80" rerouteNo="0" devices="tripinfo_flow_north_to_south.6" vType="microbusDist1" speedFactor="0.83" vaporized=""/>
    <tripinfo id="flow_east_to_east.2" depart="29.00" departLane="east_to_u_turn_1" departPos="2.10" departSpeed="14.20" departDelay="0.20" arrival="188.00" arrivalLane="u_turn_to_east_0" arrivalPos="900.00" arrivalSpeed="13.93" duration="159.00" routeLength="1802.58" waitingTime="13.00" waitingCount="3" stopTime="0.00" timeLoss="30.83" rerouteNo="0" devices="tripinfo_flow_east_to_east.2" vType="motorcycleDist2" speedFactor="1.02" vaporized=""/>
    <tripinfo id="flow_south_to_west.10" depart="56.00" departLane="south_to_0_0" departPos="2.10" departSpeed="16.38" departDelay="0.62" arrival="188.00" arrivalLane="0_to_west_0" arrivalPos="986.40" arrivalSpeed="15.82" duration="132.00" routeLength="1988.10" waitingTime="0.00" waitingCount="0" stopTime="0.00" timeLoss="9.85" rerouteNo="0" devices="tripinfo_flow_south_to_west.10" vType="motorcycleDist3" speedFactor="1.18" vaporized=""/>
    <tripinfo id="flow_east_to_east_rickshaw.3" depart="25.00" departLane="east_to_u_turn_1" departPos="2.10" departSpeed="12.76" departDelay="1.00" arrival="189.00" arrivalLane="u_turn_to_east_0" arrivalPos="900.00" arrivalSpeed="12.36" duration="164.00" routeLength="1802.58" waitingTime="10.00" waitingCount="2" stopTime="0.00" timeLoss="21.33" rerouteNo="0" devices="tripinfo_flow_east_to_east_rickshaw.3" vType="motorcycleDist2" speedFactor="0.92" vaporized=""/>
    <tripinfo id="flow_east_to_east_rickshaw.4" depart="32.00" departLane="east_to_u_turn_1" departPos="2.10" departSpeed="14.68" departDelay="0.00" arrival="189.00" arrivalLane="u_turn_to_east_1" arrivalPos="900.00" arrivalSpeed="13.93" duration="157.00" routeLength="1802.58" waitingTime="12.00" waitingCount="3" stopTime="0.00" timeLoss="33.29" rerouteNo="0" devices="tripinfo_flow_east_to_east_rickshaw.4" vType="motorcycleDist2" speedFactor="1.06" vaporized=""/>
    <tripinfo id="flow_north_to_east.13" depart="39.00" departLane="north_to_0_0" departPos="5.10" departSpeed="11.40" departDelay="0.00" arrival="191.00" arrivalLane="u_turn_to_east_0" arrivalPos="900.00" arrivalSpeed="13.84" duration="152.00" routeLength="1980.03" waitingTime="0.00" waitingCount="0" stopTime="0.00" timeLoss="11.30" rerouteNo="0" devices="tripinfo_flow_north_to_east.13" vType="carDist2" speedFactor="1.02" vaporized=""/>
    <tripinfo id="flow_south_to_north.18" depart="36.00" departLane="south_to_0_2" departPos="2.10" departSpeed="13.45" departDelay="0.00" arrival="192.00" arrivalLane="0_to_north_0" arrivalPos="989.60" arrivalSpeed="13.34" duration="156.00" routeLength="1997.90" waitingTime="0.00" waitingCount="0" stopTime="0.00" timeLoss="6.92" rerouteNo="0" devices="tripinfo_flow_south_to_north.18" vType="motorcycleDist1" speedFactor="0.97" vaporized=""/>