<?xml version="1.0" encoding="UTF-8"?>

<!-- generated on 2025-04-22 23:33:13 by Eclipse SUMO GUI Version 1.21.0
<sumoConfiguration xmlns:xsi="http://www.w3.org/2001/XMLSchema-instance" xsi:noNamespaceSchemaLocation="http://sumo.dlr.de/xsd/sumoConfiguration.xsd">

    <input>
        <net-file value="E:\CE\MRT Traffic Management\lane_closure\network.net.xml"/>
        <route-files value="E:\CE\MRT Traffic Management\lane_closure\routes.rou.xml"/>
        <additional-files value="E:\CE\MRT Traffic Management\lane_closure\busBay.add.xml"/>
    </input>

    <output>
        <summary-output value="E:\CE\MRT Traffic Management\lane_closure\summary.xml"/>
        <tripinfo-output value="E:\CE\MRT Traffic Management\lane_closure\tripinfo.xml"/>
    </output>

    <time>
        <begin value="0"/>
        <end value="3600"/>
    </time>

</sumoConfiguration>
-->

<tripinfos xmlns:xsi="http://www.w3.org/2001/XMLSchema-instance" xsi:noNamespaceSchemaLocation="http://sumo.dlr.de/xsd/tripinfo_file.xsd">
    <tripinfo id="flow_east_to_east.0" depart="0.00" departLane="east_to_u_turn_1" departPos="5.10" departSpeed="15.15" departDelay="0.00" arrival="125.00" arrivalLane="u_turn_to_east_0" arrivalPos="900.00" arrivalSpeed="14.70" duration="125.00" routeLength="1808.92" waitingTime="0.00" waitingCount="0" stopTime="0.00" timeLoss="3.89" rerouteNo="0" devices="tripinfo_flow_east_to_east.0" vType="carDist2" speedFactor="1.09" vaporized=""/>
    <tripinfo id="flow_west_to_north.0" depart="0.00" departLane="west_to_0_0" departPos="2.10" departSpeed="14.53" departDelay="0.00" arrival="143.00" arrivalLane="0_to_north_0" arrivalPos="989.60" arrivalSpeed="14.01" duration="143.00" routeLength="1982.93" waitingTime="0.00" waitingCount="0" stopTime="0.00" timeLoss="5.39" rerouteNo="0" devices="tripinfo_flow_west_to_north.0" vType="motorcycleDist3" speedFactor="1.05" vaporized=""/>
    <tripinfo id="flow_west_to_north.2" depart="12.00" departLane="west_to_0_1" departPos="2.10" departSpeed="15.31" departDelay="0.92" arrival="147.00" arrivalLane="0_to_north_0" arrivalPos="989.60" arrivalSpeed="14.96" duration="135.00" routeLength="1982.93" waitingTime="0.00" waitingCount="0" stopTime="0.00" timeLoss="4.74" rerouteNo="0" devices="tripinfo_flow_west_to_north.2" vType="motorcycleDist3" speedFactor="1.10" vaporized=""/>
    <tripinfo id="flow_south_to_north.4" depart="8.00" departLane="south_to_0_1" departPos="2.10" departSpeed="15.72" departDelay="0.38" arrival="149.00" arrivalLane="0_to_north_0" arrivalPos="989.60" arrivalSpeed="15.29" duration="141.00" routeLength="1997.90" waitingTime="5.00" waitingCount="1" stopTime="0.00" timeLoss="13.76" rerouteNo="0" devices="tripinfo_flow_south_to_north.4" vType="motorcycleDist1" speedFactor="1.13" vaporized=""/>
    <tripinfo id="flow_east_to_east.1" depart="15.00" departLane="east_to_u_turn_1" departPos="6.10" departSpeed="14.18" departDelay="0.60" arrival="149.00" arrivalLane="u_turn_to_east_0" arrivalPos="900.00" arrivalSpeed="13.90" duration="134.00" routeLength="1807.92" waitingTime="0.00" waitingCount="0" stopTime="0.00" timeLoss="4.14" rerouteNo="0" devices="tripinfo_flow_east_to_east.1" vType="microbusDist2" speedFactor="1.02" vaporized=""/>
    <tripinfo id="flow_north_to_south.1" depart="2.00" departLane="north_to_0_2" departPos="2.10" departSpeed="15.60" departDelay="0.26" arrival="150.00" arrivalLane="0_to_south_1" arrivalPos="989.60" arrivalSpeed="15.12" duration="148.00" routeLength="1997.90" waitingTime="11.00" waitingCount="1" stopTime="0.00" timeLoss="19.90" rerouteNo="0" devices="tripinfo_flow_north_to_south.1" vType="motorcycleDist1" speedFactor="1.12" vaporized=""/>
    <tripinfo id="flow_east_to_south.1" depart="4.00" departLane="east_to_u_turn_1" departPos="12.10" departSpeed="13.89" departDelay="0.57" arrival="152.00" arrivalLane="0_to_south_0" arrivalPos="989.60" arrivalSpeed="13.89" duration="148.00" routeLength="1974.53" waitingTime="0.00" waitingCount="0" stopTime="0.00" timeLoss="4.56" rerouteNo="0" devices="tripinfo_flow_east_to_south.1" vType="busDist2" speedFactor="1.00" vaporized=""/>
    <tripinfo id="flow_north_to_east.0" depart="0.00" departLane="north_to_0_1" departPos="3.10" departSpeed="13.46" departDelay="0.00" arrival="154.00" arrivalLane="u_turn_to_east_0" arrivalPos="900.00" arrivalSpeed="13.14" duration="154.00" routeLength="1990.30" waitingTime="0.00" waitingCount="0" stopTime="0.00" timeLoss="5.15" rerouteNo="0" devices="tripinfo_flow_north_to_east.0" vType="cngDist2" speedFactor="0.97" vaporized=""/>
    <tripinfo id="flow_south_to_north.0" depart="0.00" departLane="south_to_0_0" departPos="2.10" departSpeed="14.31" departDelay="0.00" arrival="156.00" arrivalLane="0_to_north_0" arrivalPos="989.60" arrivalSpeed="13.91" duration="156.00" routeLength="1997.90" waitingTime="7.00" waitingCount="1" stopTime="0.00" timeLoss="16.11" rerouteNo="0" devices="tripinfo_flow_south_to_north.0" vType="motorcycleDist1" speedFactor="1.03" vaporized=""/>
    <tripinfo id="flow_south_to_north.6" depart="12.00" departLane="south_to_0_2" departPos="5.10" departSpeed="14.16" departDelay="0.57" arrival="157.00" arrivalLane="0_to_north_1" arrivalPos="989.60" arrivalSpeed="13.96" duration="145.00" routeLength="1994.90" waitingTime="0.00" waitingCount="0" stopTime="0.00" timeLoss="4.12" rerouteNo="0" devices="tripinfo_flow_south_to_north.6" vType="carDist1" speedFactor="1.02" vaporized=""/>
    <tripinfo id="flow_south_to_north.7" depart="14.00" departLane="south_to_0_1" departPos="2.10" departSpeed="14.80" departDelay="0.67" arrival="158.00" arrivalLane="0_to_north_0" arrivalPos="989.60" arrivalSpeed="14.32" duration="144.00" routeLength="1997.90" waitingTime="0.00" waitingCount="0" stopTime="0.00" timeLoss="8.26" rerouteNo="0" devices="tripinfo_flow_south_to_north.7" vType="motorcycleDist1" speedFactor="1.07" vaporized=""/>
    <tripinfo id="flow_south_to_north.11" depart="21.00" departLane="south_to_0_0" departPos="2.10" departSpeed="15.55" departDelay="0.05" arrival="159.00" arrivalLane="0_to_north_2" arrivalPos="989.60" arrivalSpeed="15.49" duration="138.00" routeLength="1997.90" waitingTime="0.00" waitingCount="0" stopTime="0.00" timeLoss="8.78" rerouteNo="0" devices="tripinfo_flow_south_to_north.11" vType="motorcycleDist1" speedFactor="1.12" vaporized=""/>
    <tripinfo id="flow_south_to_north.13" depart="25.00" departLane="south_to_0_2" departPos="2.10" departSpeed="15.52" departDelay="0.24" arrival="159.00" arrivalLane="0_to_north_1" arrivalPos="989.60" arrivalSpeed="15.15" duration="134.00" routeLength="1997.90" waitingTime="0.00" waitingCount="0" stopTime="0.00" timeLoss="4.65" rerouteNo="0" devices="tripinfo_flow_south_to_north.13" vType="motorcycleDist1" speedFactor="1.12" vaporized=""/>
    <tripinfo id="flow_north_to_south.9" depart="16.00" departLane="north_to_0_2" departPos="2.10" departSpeed="14.77" departDelay="0.35" arrival="162.00" arrivalLane="0_to_south_0" arrivalPos="989.60" arrivalSpeed="14.21" duration="146.00" routeLength="1997.90" waitingTime="0.00" waitingCount="0" stopTime="0.00" timeLoss="9.87" rerouteNo="0" devices="tripinfo_flow_north_to_south.9" vType="motorcycleDist1" speedFactor="1.06" vaporized=""/>
    <tripinfo id="flow_south_to_north.1" depart="2.00" departLane="south_to_0_2" departPos="3.10" departSpeed="13.35" departDelay="0.10" arrival="163.00" arrivalLane="0_to_north_0" arrivalPos="989.60" arrivalSpeed="12.87" duration="161.00" routeLength="1996.90" waitingTime="0.00" waitingCount="0" stopTime="0.00" timeLoss="10.64" rerouteNo="0" devices="tripinfo_flow_south_to_north.1" vType="cngDist1" speedFactor="0.96" vaporized=""/>
    <tripinfo id="flow_north_to_south.3" depart="6.00" departLane="north_to_0_2" departPos="3.10" departSpeed="13.12" departDelay="0.78" arrival="163.00" arrivalLane="0_to_south_0" arrivalPos="989.60" arrivalSpeed="12.72" duration="157.00" routeLength="1996.90" waitingTime="0.00" waitingCount="0" stopTime="0.00" timeLoss="4.72" rerouteNo="0" devices="tripinfo_flow_north_to_south.3" vType="cngDist1" speedFactor="0.94" vaporized=""/>
    <tripinfo id="flow_north_to_south.7" depart="13.00" departLane="north_to_0_2" departPos="2.10" departSpeed="14.31" departDelay="0.83" arrival="164.00" arrivalLane="0_to_south_1" arrivalPos="989.60" arrivalSpeed="13.85" duration="151.00" routeLength="1997.90" waitingTime="0.00" waitingCount="0" stopTime="0.00" timeLoss="10.65" rerouteNo="0" devices="tripinfo_flow_north_to_south.7" vType="motorcycleDist1" speedFactor="1.03" vaporized=""/>
    <tripinfo id="flow_south_to_north.9" depart="18.00" departLane="south_to_0_1" departPos="6.10" departSpeed="13.93" departDelay="0.86" arrival="164.00" arrivalLane="0_to_north_0" arrivalPos="989.60" arrivalSpeed="13.89" duration="146.00" routeLength="1993.90" waitingTime="0.00" waitingCount="0" stopTime="0.00" timeLoss="2.60" rerouteNo="0" devices="tripinfo_flow_south_to_north.9" vType="microbusDist1" speedFactor="1.00" vaporized=""/>
    <tripinfo id="flow_south_to_north.2" depart="4.00" departLane="south_to_0_1" departPos="6.10" departSpeed="10.23" departDelay="0.19" arrival="167.00" arrivalLane="0_to_north_0" arrivalPos="989.60" arrivalSpeed="12.77" duration="163.00" routeLength="1993.90" waitingTime="0.00" waitingCount="0" stopTime="0.00" timeLoss="7.77" rerouteNo="0" devices="tripinfo_flow_south_to_north.2" vType="microbusDist1" speedFactor="0.93" vaporized=""/>
    <tripinfo id="flow_north_to_south.14" depart="25.00" departLane="north_to_0_2" departPos="2.10" departSpeed="14.34" departDelay="0.65" arrival="173.00" arrivalLane="0_to_south_0" arrivalPos="989.60" arrivalSpeed="14.15" duration="148.00" routeLength="1997.90" waitingTime="0.00" waitingCount="0" stopTime="0.00" timeLoss="7.94" rerouteNo="0" devices="tripinfo_flow_north_to_south.14" vType="motorcycleDist1" speedFactor="1.03" vaporized=""/>
    <tripinfo id="flow_south_to_west.3" depart="17.00" departLane="south_to_0_0" departPos="2.10" departSpeed="16.24" departDelay="0.39" arrival="174.00" arrivalLane="0_to_west_0" arrivalPos="986.40" arrivalSpeed="15.66" duration="157.00" routeLength="1982.93" waitingTime="0.00" waitingCount="0" stopTime="0.00" timeLoss="33.78" rerouteNo="0" devices="tripinfo_flow_south_to_west.3" vType="motorcycleDist3" speedFactor="1.17" vaporized=""/>
    <tripinfo id="flow_north_to_south.5" depart="9.00" departLane="north_to_0_2" departPos="2.10" departSpeed="12.42" departDelay="0.31" arrival="175.00" arrivalLane="0_to_south_0" arrivalPos="989.60" arrivalSpeed="11.75" duration="166.00" routeLength="1997.90" waitingTime="0.00" waitingCount="0" stopTime="0.00" timeLoss="4.99" rerouteNo="0" devices="tripinfo_flow_north_to_south.5" vType="motorcycleDist1" speedFactor="0.89" vaporized=""/>
    <tripinfo id="flow_north_to_south.16" depart="28.00" departLane="north_to_0_2" departPos="2.10" departSpeed="14.20" departDelay="0.18" arrival="175.00" arrivalLane="0_to_south_1" arrivalPos="989.60" arrivalSpeed="14.06" duration="147.00" routeLength="1997.90" waitingTime="0.00" waitingCount="0" stopTime="0.00" timeLoss="5.68" rerouteNo="0" devices="tripinfo_flow_north_to_south.16" vType="motorcycleDist1" speedFactor="1.02" vaporized=""/>
    <tripinfo id="flow_north_to_south.2" depart="4.00" departLane="north_to_0_0" departPos="2.10" departSpeed="13.14" departDelay="0.52" arrival="177.00" arrivalLane="0_to_south_0" arrivalPos="989.60" arrivalSpeed="14.15" duration="173.00" routeLength="1997.90" waitingTime="2.00" waitingCount="1" stopTime="0.00" timeLoss="34.38" rerouteNo="0" devices="tripinfo_flow_north_to_south.2" vType="motorcycleDist1" speedFactor="1.04" vaporized=""/>
    <tripinfo id="flow_north_to_south.15" depart="27.00" departLane="north_to_0_1" departPos="12.10" departSpeed="12.82" departDelay="0.92" arrival="178.00" arrivalLane="0_to_south_1" arrivalPos="989.60" arrivalSpeed="13.72" duration="151.00" routeLength="1987.90" waitingTime="0.00" waitingCount="0" stopTime="0.00" timeLoss="7.23" rerouteNo="0" devices="tripinfo_flow_north_to_south.15" vType="busDist1" speedFactor="1.00" vaporized=""/>
    <tripinfo id="flow_south_to_north.16" depart="31.00" departLane="south_to_0_1" departPos="2.10" departSpeed="14.62" departDelay="0.52" arrival="178.00" arrivalLane="0_to_north_0" arrivalPos="989.60" arrivalSpeed="14.33" duration="147.00" routeLength="1997.90" waitingTime="0.00" waitingCount="0" stopTime="0.00" timeLoss="10.29" rerouteNo="0" devices="tripinfo_flow_south_to_north.16" vType="motorcycleDist1" speedFactor="1.05" vaporized=""/>
    <tripinfo id="flow_south_to_north.5" depart="10.00" departLane="south_to_0_0" departPos="3.10" departSpeed="13.89" departDelay="0.48" arrival="179.00" arrivalLane="0_to_north_1" arrivalPos="989.60" arrivalSpeed="13.42" duration="169.00" routeLength="1996.90" waitingTime="0.00" waitingCount="0" stopTime="0.00" timeLoss="25.22" rerouteNo="0" devices="tripinfo_flow_south_to_north.5" vType="cngDist1" speedFactor="1.06" vaporized=""/>
    <tripinfo id="flow_north_to_south.10" depart="18.00" departLane="north_to_0_0" departPos="6.10" departSpeed="15.29" departDelay="0.61" arrival="180.00" arrivalLane="0_to_south_1" arrivalPos="989.60" arrivalSpeed="15.24" duration="162.00" routeLength="1993.90" waitingTime="0.00" waitingCount="0" stopTime="0.00" timeLoss="30.89" rerouteNo="0" devices="tripinfo_flow_north_to_south.10" vType="microbusDist1" speedFactor="1.10" vaporized=""/>
    <tripinfo id="flow_bus_south_to_north.0" depart="1.00" departLane="south_to_0_0" departPos="12.10" departSpeed="6.62" departDelay="1.00" arrival="182.00" arrivalLane="0_to_north_0" arrivalPos="989.60" arrivalSpeed="13.60" duration="181.00" routeLength="1987.90" waitingTime="4.00" waitingCount="2" stopTime="10.00" timeLoss="27.76" rerouteNo="0" devices="tripinfo_flow_bus_south_to_north.0" vType="busDist1" speedFactor="1.00" vaporized=""/>
    <tripinfo id="flow_south_to_north.8" depart="16.00" departLane="south_to_0_2" departPos="5.10" departSpeed="12.18" departDelay="0.76" arrival="185.00" arrivalLane="0_to_north_0" arrivalPos="989.60" arrivalSpeed="12.02" duration="169.00" routeLength="1994.90" waitingTime="0.00" waitingCount="0" stopTime="0.00" timeLoss="4.44" rerouteNo="0" devices="tripinfo_flow_south_to_north.8" vType="carDist1" speedFactor="0.88" vaporized=""/>
    <tripinfo id="flow_north_to_south.0" depart="0.00" departLane="north_to_0_0" departPos="2.60" departSpeed="11.11" departDelay="0.00" arrival="186.00" arrivalLane="0_to_south_0" arrivalPos="989.60" arrivalSpeed="11.02" duration="186.00" routeLength="1997.40" waitingTime="0.00" waitingCount="0" stopTime="0.00" timeLoss="5.98" rerouteNo="0" devices="tripinfo_flow_north_to_south.0" vType="rickshawDist1" speedFactor="1.08" vaporized=""/>
    <tripinfo id="flow_north_to_south.17" depart="30.00" departLane="north_to_0_0" departPos="6.10" departSpeed="13.09" departDelay="0.44" arrival="186.00" arrivalLane="0_to_south_1" arrivalPos="989.60" arrivalSpeed="12.82" duration="156.00" routeLength="1993.90" waitingTime="0.00" waitingCount="0" stopTime="0.00" timeLoss="3.67" rerouteNo="0" devices="tripinfo_flow_north_to_south.17" vType="microbusDist1" speedFactor="0.94" vaporized=""/>
    <tripinfo id="flow_bus_north_to_south.0" depart="2.00" departLane="north_to_0_0" departPos="12.10" departSpeed="9.82" departDelay="2.00" arrival="189.00" arrivalLane="0_to_south_0" arrivalPos="989.60" arrivalSpeed="13.75" duration="187.00" routeLength="1987.90" waitingTime="1.00" waitingCount="1" stopTime="10.00" timeLoss="33.15" rerouteNo="0" devices="tripinfo_flow_bus_north_to_south.0" vType="busDist1" speedFactor="1.00" vaporized=""/>
    <tripinfo id="flow_south_to_west.2" depart="12.00" departLane="south_to_0_0" departPos="2.10" departSpeed="13.06" departDelay="0.92" arrival="189.00" arrivalLane="0_to_west_0" arrivalPos="986.40" arrivalSpeed="12.93" duration="177.00" routeLength="1982.93" waitingTime="0.00" waitingCount="0" stopTime="0.00" timeLoss="24.06" rerouteNo="0" devices="tripinfo_flow_south_to_west.2" vType="motorcycleDist3" speedFactor="0.94" vaporized=""/>
    <tripinfo id="flow_south_to_north.15" depart="29.00" departLane="south_to_0_2" departPos="3.10" departSpeed="12.83" departDelay="0.43" arrival="189.00" arrivalLane="0_to_north_0" arrivalPos="989.60" arrivalSpeed="12.50" duration="160.00" routeLength="1996.90" waitingTime="0.00" waitingCount="0" stopTime="0.00" timeLoss="3.51" rerouteNo="0" devices="tripinfo_flow_south_to_north.15" vType="cngDist1" speedFactor="0.92" vaporized=""/>
    <tripinfo id="flow_south_to_north.24" depart="46.00" departLane="south_to_0_1" departPos="2.10" departSpeed="14.41" departDelay="0.28" arrival="189.00" arrivalLane="0_to_north_1" arrivalPos="989.60" arrivalSpeed="13.96" duration="143.00" routeLength="1997.90" waitingTime="0.00" waitingCount="0" stopTime="0.00" timeLoss="4.06" rerouteNo="0" devices="tripinfo_flow_south_to_north.24" vType="motorcycleDist1" speedFactor="1.04" vaporized=""/>
    <tripinfo id="flow_south_to_west.4" depart="23.00" departLane="south_to_0_0" departPos="2.10" departSpeed="13.16" departDelay="0.85" arrival="191.00" arrivalLane="0_to_west_0" arrivalPos="986.40" arrivalSpeed="12.67" duration="168.00" routeLength="1982.93" waitingTime="0.00" waitingCount="0" stopTime="0.00" timeLoss="15.67" rerouteNo="0" devices="tripinfo_flow_south_to_west.4" vType="motorcycleDist3" speedFactor="0.95" vaporized=""/>
    <tripinfo id="flow_south_to_north.3" depart="6.00" departLane="south_to_0_2" departPos="2.60" departSpeed="11.11" departDelay="0.29" arrival="192.00" arrivalLane="0_to_north_0" arrivalPos="989.60" arrivalSpeed="10.69" duration="186.00" routeLength="1997.40" waitingTime="0.00" waitingCount="0" stopTime="0.00" timeLoss="6.18" rerouteNo="0" devices="tripinfo_flow_south_to_north.3" vType="rickshawDist1" speedFactor="1.10" vaporized=""/>
    <tripinfo id="flow_south_to_west.1" depart="6.00" departLane="south_to_0_0" departPos="3.10" departSpeed="13.89" departDelay="0.46" arrival="192.00" arrivalLane="0_to_west_0" arrivalPos="986.40" arrivalSpeed="13.32" duration="186.00" routeLength="1981.93" waitingTime="1.00" waitingCount="1" stopTime="0.00" timeLoss="42.37" rerouteNo="0" devices="tripinfo_flow_south_to_west.1" vType="cngDist3" speedFactor="1.01" vaporized=""/>
    <tripinfo id="flow_north_to_south.6" depart="11.00" departLane="north_to_0_0" departPos="2.10" departSpeed="13.82" departDelay="0.57" arrival="192.00" arrivalLane="0_to_south_0" arrivalPos="989.60" arrivalSpeed="13.52" duration="181.00" routeLength="1997.90" waitingTime="5.00" waitingCount="1" stopTime="0.00" timeLoss="36.02" rerouteNo="0" devices="tripinfo_flow_north_to_south.6" vType="motorcycleDist1" speedFactor="0.99" vaporized=""/>
    <tripinfo id="flow_north_to_east.4" depart="12.00" departLane="north_to_0_1" departPos="6.10" departSpeed="11.60" departDelay="0.00" arrival="192.00" arrivalLane="u_turn_to_east_1" arrivalPos="900.00" arrivalSpeed="11.51" duration="180.00" routeLength="1987.30" waitingTime="0.00" waitingCount="0" stopTime="0.00" timeLoss="7.25" rerouteNo="0" devices="tripinfo_flow_north_to_east.4" vType="microbusDist2" speedFactor="0.83" vaporized=""/>
    <tripinfo id="flow_north_to_south.8" depart="14.00" departLane="north_to_0_0" departPos="2.10" departSpeed="14.42" departDelay="0.09" arrival="192.00" arrivalLane="0_to_south_1" arrivalPos="989.60" arrivalSpeed="13.99" duration="178.00" routeLength="1997.90" waitingTime="4.00" waitingCount="1" stopTime="0.00" timeLoss="38.60" rerouteNo="0" devices="tripinfo_flow_north_to_south.8" vType="motorcycleDist1" speedFactor="1.04" vaporized=""/>
    <tripinfo id="flow_south_to_north.22" depart="42.00" departLane="south_to_0_1" departPos="5.10" departSpeed="13.57" departDelay="0.09" arrival="192.00" arrivalLane="0_to_north_1" arrivalPos="989.60" arrivalSpeed="13.31" duration="150.00" routeLength="1994.90" waitingTime="0.00" waitingCount="0" stopTime="0.00" timeLoss="2.88" rerouteNo="0" devices="tripinfo_flow_south_to_north.22" vType="carDist1" speedFactor="0.98" vaporized=""/>
    <tripinfo id="flow_north_to_east.1" depart="3.00" departLane="north_to_0_1" departPos="2.60" departSpeed="11.11" departDelay="0.00" arrival="193.00" arrivalLane="u_turn_to_east_0" arrivalPos="900.00" arrivalSpeed="10.52" duration="190.00" routeLength="1990.80" waitingTime="0.00" waitingCount="0" stopTime="0.00" timeLoss="9.63" rerouteNo="0" devices="tripinfo_flow_north_to_east.1" vType="rickshawDist2" speedFactor="0.90" vaporized=""/>
    <tripinfo id="flow_south_to_north.12" depart="23.00" departLane="south_to_0_1" departPos="2.10" departSpeed="12.60" departDelay="0.14" arrival="194.00" arrivalLane="0_to_north_0" arrivalPos="989.60" arrivalSpeed="12.27" duration="171.00" routeLength="1997.90" waitingTime="0.00" waitingCount="0" stopTime="0.00" timeLoss="11.57" rerouteNo="0" devices="tripinfo_flow_south_to_north.12" vType="motorcycleDist1" speedFactor="0.91" vaporized=""/>
    <tripinfo id="flow_east_to_east.2" depart="29.00" departLane="east_to_u_turn_0" departPos="5.10" departSpeed="14.20" departDelay="0.20" arrival="194.00" arrivalLane="u_turn_to_east_1" arrivalPos="900.00" arrivalSpeed="14.02" duration="165.00" routeLength="1808.92" waitingTime="0.00" waitingCount="0" stopTime="0.00" timeLoss="35.55" rerouteNo="0" devices="tripinfo_flow_east_to_east.2" vType="carDist2" speedFactor="1.02" vaporized=""/>
    <tripinfo id="flow_south_to_north.27" depart="52.00" departLane="south_to_0_2" departPos="6.10" departSpeed="14.44" departDelay="0.57" arrival="194.00" arrivalLane="0_to_north_1" arrivalPos="989.60" arrivalSpeed="14.09" duration="142.00" routeLength="1993.90" waitingTime="0.00" waitingCount="0" stopTime="0.00" timeLoss="3.57" rerouteNo="0" devices="tripinfo_flow_south_to_north.27" vType="microbusDist1" speedFactor="1.04" vaporized=""/>
    <tripinfo id="flow_north_to_south.19" depart="34.00" departLane="north_to_0_0" departPos="2.10" departSpeed="13.45" departDelay="0.96" arrival="195.00" arrivalLane="0_to_south_0" arrivalPos="989.60" arrivalSpeed="13.38" duration="161.00" routeLength="1997.90" waitingTime="0.00" waitingCount="0" stopTime="0.00" timeLoss="12.41" rerouteNo="0" devices="tripinfo_flow_north_to_south.19" vType="motorcycleDist1" speedFactor="0.97" vaporized=""/>
    <tripinfo id="flow_south_to_north.18" depart="35.00" departLane="south_to_0_2" departPos="2.10" departSpeed="13.18" departDelay="0.71" arrival="195.00" arrivalLane="0_to_north_0" arrivalPos="989.60" arrivalSpeed="12.72" duration="160.00" routeLength="1997.90" waitingTime="0.00" waitingCount="0" stopTime="0.00" timeLoss="7.80" rerouteNo="0" devices="tripinfo_flow_south_to_north.18" vType="motorcycleDist1" speedFactor="0.95" vaporized=""/>
    <tripinfo id="flow_north_to_south.20" depart="35.00" departLane="north_to_0_2" departPos="2.10" departSpeed="14.90" departDelay="0.22" arrival="195.00" arrivalLane="0_to_south_1" arrivalPos="989.60" arrivalSpeed="14.61" duration="160.00" routeLength="1997.90" waitingTime="0.00" waitingCount="0" stopTime="0.00" timeLoss="25.68" rerouteNo="0" devices="tripinfo_flow_north_to_south.20" vType="motorcycleDist1" speedFactor="1.07" vaporized=""/>
    <tripinfo id="flow_north_to_east.2" depart="6.00" departLane="north_to_0_1" departPos="2.60" departSpeed="11.11" departDelay="0.00" arrival="196.00" arrivalLane="u_turn_to_east_0" arrivalPos="900.00" arrivalSpeed="10.62" duration="190.00" routeLength="1990.80" waitingTime="0.00" waitingCount="0" stopTime="0.00" timeLoss="9.57" rerouteNo="0" devices="tripinfo_flow_north_to_east.2" vType="rickshawDist2" speedFactor="1.01" vaporized=""/>
    <tripinfo id="flow_north_to_south.25" depart="44.00" departLane="north_to_0_2" departPos="2.10" departSpeed="14.34" departDelay="0.53" arrival="199.00" arrivalLane="0_to_south_0" arrivalPos="989.60" arrivalSpeed="13.68" duration="155.00" routeLength="1997.90" waitingTime="0.00" waitingCount="0" stopTime="0.00" timeLoss="15.29" rerouteNo="0" devices="tripinfo_flow_north_to_south.25" vType="motorcycleDist1" speedFactor="1.03" vaporized=""/>
    <tripinfo id="flow_south_to_north.33" depart="63.00" departLane="south_to_0_2" departPos="6.10" departSpeed="15.05" departDelay="0.14" arrival="199.00" arrivalLane="0_to_north_1" arrivalPos="989.60" arrivalSpeed="14.79" duration="136.00" routeLength="1993.90" waitingTime="0.00" waitingCount="0" stopTime="0.00" timeLoss="3.20" rerouteNo="0" devices="tripinfo_flow_south_to_north.33" vType="microbusDist1" speedFactor="1.08" vaporized=""/>
    <tripinfo id="flow_south_to_west.0" depart="2.00" departLane="south_to_0_0" departPos="2.60" departSpeed="11.11" departDelay="2.00" arrival="200.00" arrivalLane="0_to_west_0" arrivalPos="986.40" arrivalSpeed="11.04" duration="198.00" routeLength="1982.43" waitingTime="2.00" waitingCount="1" stopTime="0.00" timeLoss="18.44" rerouteNo="0" devices="tripinfo_flow_south_to_west.0" vType="rickshawDist3" speedFactor="1.20" vaporized=""/>
    <tripinfo id="flow_west_to_north.5" depart="28.00" departLane="west_to_0_0" departPos="5.10" departSpeed="15.94" departDelay="0.31" arrival="201.00" arrivalLane="0_to_north_2" arrivalPos="989.60" arrivalSpeed="15.71" duration="173.00" routeLength="1985.09" waitingTime="40.00" waitingCount="1" stopTime="0.00" timeLoss="47.16" rerouteNo="0" devices="tripinfo_flow_west_to_north.5" vType="carDist3" speedFactor="1.15" vaporized=""/>
    <tripinfo id="flow_south_to_north.26" depart="50.00" departLane="south_to_0_1" departPos="5.10" departSpeed="14.09" departDelay="0.47" arrival="201.00" arrivalLane="0_to_north_0" arrivalPos="989.60" arrivalSpeed="13.63" duration="151.00" routeLength="1994.90" waitingTime="0.00" waitingCount="0" stopTime="0.00" timeLoss="8.65" rerouteNo="0" devices="tripinfo_flow_south_to_north.26" vType="carDist1" speedFactor="1.01" vaporized=""/>
    <tripinfo id="flow_north_to_south.4" depart="7.00" departLane="north_to_0_0" departPos="2.60" departSpeed="11.11" departDelay="0.04" arrival="204.00" arrivalLane="0_to_south_0" arrivalPos="989.60" arrivalSpeed="10.74" duration="197.00" routeLength="1997.40" waitingTime="1.00" waitingCount="1" stopTime="0.00" timeLoss="16.68" rerouteNo="0" devices="tripinfo_flow_north_to_south.4" vType="rickshawDist1" speedFactor="0.87" vaporized=""/>
    <tripinfo id="flow_west_to_north.9" depart="50.00" departLane="west_to_0_0" departPos="2.10" departSpeed="16.67" departDelay="0.16" arrival="204.00" arrivalLane="0_to_north_2" arrivalPos="989.60" arrivalSpeed="16.28" duration="154.00" routeLength="1988.09" waitingTime="22.00" waitingCount="1" stopTime="0.00" timeLoss="33.99" rerouteNo="0" devices="tripinfo_flow_west_to_north.9" vType="motorcycleDist3" speedFactor="1.21" vaporized=""/>
    <tripinfo id="flow_south_to_north.25" depart="48.00" departLane="south_to_0_2" departPos="5.10" departSpeed="13.26" departDelay="0.38" arrival="205.00" arrivalLane="0_to_north_1" arrivalPos="989.60" arrivalSpeed="12.88" duration="157.00" routeLength="1994.90" waitingTime="0.00" waitingCount="0" stopTime="0.00" timeLoss="6.55" rerouteNo="0" devices="tripinfo_flow_south_to_north.25" vType="carDist1" speedFactor="0.95" vaporized=""/>
    <tripinfo id="flow_south_to_north.10" depart="20.00" departLane="south_to_0_2" departPos="2.60" departSpeed="11.11" departDelay="0.95" arrival="206.00" arrivalLane="0_to_north_0" arrivalPos="989.60" arrivalSpeed="10.60" duration="186.00" routeLength="1997.40" waitingTime="0.00" waitingCount="0" stopTime="0.00" timeLoss="5.91" rerouteNo="0" devices="tripinfo_flow_south_to_north.10" vType="rickshawDist1" speedFactor="1.02" vaporized=""/>
    <tripinfo id="flow_north_to_south.12" depart="21.00" departLane="north_to_0_0" departPos="15.10" departSpeed="13.87" departDelay="0.13" arrival="206.00" arrivalLane="0_to_south_0" arrivalPos="989.60" arrivalSpeed="12.24" duration="185.00" routeLength="1984.90" waitingTime="3.00" waitingCount="1" stopTime="0.00" timeLoss="41.26" rerouteNo="0" devices="tripinfo_flow_north_to_south.12" vType="truckDist1" speedFactor="1.00" vaporized=""/>
    <tripinfo id="flow_west_to_north.3" depart="17.00" departLane="west_to_0_0" departPos="2.10" departSpeed="14.56" departDelay="0.39" arrival="207.00" arrivalLane="0_to_north_1" arrivalPos="989.60" arrivalSpeed="14.28" duration="190.00" routeLength="1982.93" waitingTime="45.00" waitingCount="1" stopTime="0.00" timeLoss="53.13" rerouteNo="0" devices="tripinfo_flow_west_to_north.3" vType="motorcycleDist3" speedFactor="1.05" vaporized=""/>
    <tripinfo id="flow_north_to_south.11" depart="20.00" departLane="north_to_0_2" departPos="2.60" departSpeed="11.11" departDelay="0.87" arrival="208.00" arrivalLane="0_to_south_1" arrivalPos="989.60" arrivalSpeed="11.10" duration="188.00" routeLength="1997.40" waitingTime="0.00" waitingCount="0" stopTime="0.00" timeLoss="7.50" rerouteNo="0" devices="tripinfo_flow_north_to_south.11" vType="rickshawDist1" speedFactor="1.00" vaporized=""/>
    <tripinfo id="flow_north_to_south.13" depart="23.00" departLane="north_to_0_0" departPos="5.10" departSpeed="12.89" departDelay="0.39" arrival="208.00" arrivalLane="0_to_south_2" arrivalPos="989.60" arrivalSpeed="12.78" duration="185.00" routeLength="1994.90" waitingTime="2.00" waitingCount="1" stopTime="0.00" timeLoss="29.78" rerouteNo="0" devices="tripinfo_flow_north_to_south.13" vType="carDist1" speedFactor="0.93" vaporized=""/>
    <tripinfo id="flow_north_to_south.26" depart="46.00" departLane="north_to_0_2" departPos="5.10" departSpeed="14.38" departDelay="0.79" arrival="208.00" arrivalLane="0_to_south_0" arrivalPos="989.60" arrivalSpeed="14.19" duration="162.00" routeLength="1994.90" waitingTime="0.00" waitingCount="0" stopTime="0.00" timeLoss="22.80" rerouteNo="0" devices="tripinfo_flow_north_to_south.26" vType="carDist1" speedFactor="1.04" vaporized=""/>