<?xml version="1.0" encoding="UTF-8"?>

<!-- generated on 2025-04-21 22:54:01 by Eclipse SUMO GUI Version 1.21.0
<sumoConfiguration xmlns:xsi="http://www.w3.org/2001/XMLSchema-instance" xsi:noNamespaceSchemaLocation="http://sumo.dlr.de/xsd/sumoConfiguration.xsd">

    <input>
        <net-file value="E:\CE\MRT Traffic Management\baseline_without_ricky\network.net.xml"/>
        <route-files value="E:\CE\MRT Traffic Management\baseline_without_ricky\routes.rou.xml"/>
        <additional-files value="E:\CE\MRT Traffic Management\baseline_without_ricky\busBay.add.xml"/>
    </input>

    <output>
        <tripinfo-output value="E:\CE\MRT Traffic Management\baseline_without_ricky\tripinfo.xml"/>
    </output>

    <time>
        <begin value="0"/>
        <end value="3600"/>
    </time>

</sumoConfiguration>
-->

<tripinfos xmlns:xsi="http://www.w3.org/2001/XMLSchema-instance" xsi:noNamespaceSchemaLocation="http://sumo.dlr.de/xsd/tripinfo_file.xsd">
    <tripinfo id="flow_east_to_east_rickshaw.0" depart="1.00" departLane="east_to_u_turn_1" departPos="2.10" departSpeed="12.27" departDelay="1.00" arrival="127.00" arrivalLane="u_turn_to_east_0" arrivalPos="900.00" arrivalSpeed="15.43" duration="126.00" routeLength="1802.58" waitingTime="0.00" waitingCount="0" stopTime="0.00" timeLoss="9.31" rerouteNo="0" devices="tripinfo_flow_east_to_east_rickshaw.0" vType="motorcycleDist2" speedFactor="1.12" vaporized=""/>
    <tripinfo id="flow_east_to_south.0" depart="0.00" departLane="east_to_u_turn_0" departPos="5.10" departSpeed="15.15" departDelay="0.00" arrival="135.00" arrivalLane="0_to_south_0" arrivalPos="989.60" arrivalSpeed="14.94" duration="135.00" routeLength="1976.83" waitingTime="0.00" waitingCount="0" stopTime="0.00" timeLoss="3.77" rerouteNo="0" devices="tripinfo_flow_east_to_south.0" vType="carDist2" speedFactor="1.09" vaporized=""/>
    <tripinfo id="flow_east_to_east.0" depart="0.00" departLane="east_to_u_turn_1" departPos="3.10" departSpeed="13.35" departDelay="0.00" arrival="145.00" arrivalLane="u_turn_to_east_1" arrivalPos="900.00" arrivalSpeed="12.83" duration="145.00" routeLength="1801.58" waitingTime="0.00" waitingCount="0" stopTime="0.00" timeLoss="7.97" rerouteNo="0" devices="tripinfo_flow_east_to_east.0" vType="cngDist2" speedFactor="0.96" vaporized=""/>
    <tripinfo id="flow_north_to_south.4" depart="8.00" departLane="north_to_0_3" departPos="2.10" departSpeed="15.72" departDelay="0.00" arrival="146.00" arrivalLane="0_to_south_0" arrivalPos="989.60" arrivalSpeed="15.08" duration="138.00" routeLength="1997.90" waitingTime="0.00" waitingCount="0" stopTime="0.00" timeLoss="10.57" rerouteNo="0" devices="tripinfo_flow_north_to_south.4" vType="motorcycleDist1" speedFactor="1.13" vaporized=""/>
    <tripinfo id="flow_south_to_north.2" depart="5.00" departLane="south_to_0_3" departPos="5.10" departSpeed="15.04" departDelay="0.61" arrival="149.00" arrivalLane="0_to_north_0" arrivalPos="989.60" arrivalSpeed="14.78" duration="144.00" routeLength="1994.90" waitingTime="4.00" waitingCount="1" stopTime="0.00" timeLoss="10.57" rerouteNo="0" devices="tripinfo_flow_south_to_north.2" vType="carDist1" speedFactor="1.08" vaporized=""/>
    <tripinfo id="flow_north_to_south.9" depart="18.00" departLane="north_to_0_2" departPos="6.10" departSpeed="15.29" departDelay="0.00" arrival="152.00" arrivalLane="0_to_south_0" arrivalPos="989.60" arrivalSpeed="15.19" duration="134.00" routeLength="1993.90" waitingTime="0.00" waitingCount="0" stopTime="0.00" timeLoss="3.48" rerouteNo="0" devices="tripinfo_flow_north_to_south.9" vType="microbusDist1" speedFactor="1.10" vaporized=""/>
    <tripinfo id="flow_south_to_west.0" depart="1.00" departLane="south_to_0_1" departPos="2.10" departSpeed="12.53" departDelay="1.00" arrival="153.00" arrivalLane="0_to_west_0" arrivalPos="983.20" arrivalSpeed="14.30" duration="152.00" routeLength="1984.90" waitingTime="1.00" waitingCount="1" stopTime="0.00" timeLoss="14.44" rerouteNo="0" devices="tripinfo_flow_south_to_west.0" vType="motorcycleDist3" speedFactor="1.05" vaporized=""/>
    <tripinfo id="flow_north_to_east.1" depart="3.00" departLane="north_to_0_1" departPos="2.10" departSpeed="14.47" departDelay="0.00" arrival="154.00" arrivalLane="u_turn_to_east_0" arrivalPos="900.00" arrivalSpeed="14.17" duration="151.00" routeLength="1985.00" waitingTime="0.00" waitingCount="0" stopTime="0.00" timeLoss="12.39" rerouteNo="0" devices="tripinfo_flow_north_to_east.1" vType="motorcycleDist2" speedFactor="1.04" vaporized=""/>
    <tripinfo id="flow_north_to_east.0" depart="1.00" departLane="north_to_0_1" departPos="2.10" departSpeed="12.21" departDelay="1.00" arrival="156.00" arrivalLane="u_turn_to_east_0" arrivalPos="900.00" arrivalSpeed="13.95" duration="155.00" routeLength="1985.00" waitingTime="0.00" waitingCount="0" stopTime="0.00" timeLoss="13.85" rerouteNo="0" devices="tripinfo_flow_north_to_east.0" vType="motorcycleDist2" speedFactor="1.02" vaporized=""/>
    <tripinfo id="flow_south_to_north.3" depart="7.00" departLane="south_to_0_2" departPos="2.10" departSpeed="14.33" departDelay="0.42" arrival="156.00" arrivalLane="0_to_north_1" arrivalPos="989.60" arrivalSpeed="14.10" duration="149.00" routeLength="1997.90" waitingTime="0.00" waitingCount="0" stopTime="0.00" timeLoss="9.47" rerouteNo="0" devices="tripinfo_flow_south_to_north.3" vType="motorcycleDist1" speedFactor="1.03" vaporized=""/>
    <tripinfo id="flow_south_to_north.0" depart="0.00" departLane="south_to_0_1" departPos="3.10" departSpeed="13.89" departDelay="0.00" arrival="157.00" arrivalLane="0_to_north_0" arrivalPos="989.60" arrivalSpeed="13.73" duration="157.00" routeLength="1996.90" waitingTime="2.00" waitingCount="1" stopTime="0.00" timeLoss="12.61" rerouteNo="0" devices="tripinfo_flow_south_to_north.0" vType="cngDist1" speedFactor="1.10" vaporized=""/>
    <tripinfo id="flow_north_to_south.0" depart="0.00" departLane="north_to_0_1" departPos="5.10" departSpeed="13.03" departDelay="0.00" arrival="157.00" arrivalLane="0_to_south_0" arrivalPos="989.60" arrivalSpeed="12.86" duration="157.00" routeLength="1994.90" waitingTime="0.00" waitingCount="0" stopTime="0.00" timeLoss="3.54" rerouteNo="0" devices="tripinfo_flow_north_to_south.0" vType="carDist1" speedFactor="0.94" vaporized=""/>
    <tripinfo id="flow_south_to_north.4" depart="9.00" departLane="south_to_0_3" departPos="3.10" departSpeed="13.89" departDelay="0.22" arrival="157.00" arrivalLane="0_to_north_1" arrivalPos="989.60" arrivalSpeed="13.51" duration="148.00" routeLength="1996.90" waitingTime="0.00" waitingCount="0" stopTime="0.00" timeLoss="3.69" rerouteNo="0" devices="tripinfo_flow_south_to_north.4" vType="cngDist1" speedFactor="1.08" vaporized=""/>
    <tripinfo id="flow_north_to_south.7" depart="14.00" departLane="north_to_0_2" departPos="2.10" departSpeed="14.42" departDelay="0.00" arrival="158.00" arrivalLane="0_to_south_1" arrivalPos="989.60" arrivalSpeed="14.31" duration="144.00" routeLength="1997.90" waitingTime="0.00" waitingCount="0" stopTime="0.00" timeLoss="4.48" rerouteNo="0" devices="tripinfo_flow_north_to_south.7" vType="motorcycleDist1" speedFactor="1.04" vaporized=""/>
    <tripinfo id="flow_north_to_east.2" depart="6.00" departLane="north_to_0_1" departPos="2.10" departSpeed="14.01" departDelay="0.00" arrival="159.00" arrivalLane="u_turn_to_east_0" arrivalPos="900.00" arrivalSpeed="13.80" duration="153.00" routeLength="1985.00" waitingTime="0.00" waitingCount="0" stopTime="0.00" timeLoss="9.75" rerouteNo="0" devices="tripinfo_flow_north_to_east.2" vType="motorcycleDist2" speedFactor="1.01" vaporized=""/>
    <tripinfo id="flow_south_to_north.7" depart="16.00" departLane="south_to_0_3" departPos="6.10" departSpeed="14.18" departDelay="0.64" arrival="159.00" arrivalLane="0_to_north_0" arrivalPos="989.60" arrivalSpeed="13.92" duration="143.00" routeLength="1993.90" waitingTime="0.00" waitingCount="0" stopTime="0.00" timeLoss="2.10" rerouteNo="0" devices="tripinfo_flow_south_to_north.7" vType="microbusDist1" speedFactor="1.02" vaporized=""/>
    <tripinfo id="flow_south_to_north.11" depart="25.00" departLane="south_to_0_3" departPos="2.10" departSpeed="15.52" departDelay="0.86" arrival="159.00" arrivalLane="0_to_north_2" arrivalPos="989.60" arrivalSpeed="15.25" duration="134.00" routeLength="1997.90" waitingTime="0.00" waitingCount="0" stopTime="0.00" timeLoss="4.70" rerouteNo="0" devices="tripinfo_flow_south_to_north.11" vType="motorcycleDist1" speedFactor="1.12" vaporized=""/>
    <tripinfo id="flow_north_to_south.2" depart="4.00" departLane="north_to_0_3" departPos="5.10" departSpeed="13.00" departDelay="0.00" arrival="161.00" arrivalLane="0_to_south_0" arrivalPos="989.60" arrivalSpeed="12.73" duration="157.00" routeLength="1994.90" waitingTime="0.00" waitingCount="0" stopTime="0.00" timeLoss="3.14" rerouteNo="0" devices="tripinfo_flow_north_to_south.2" vType="carDist1" speedFactor="0.94" vaporized=""/>
    <tripinfo id="flow_east_to_east_rickshaw.1" depart="8.00" departLane="east_to_u_turn_1" departPos="2.10" departSpeed="12.42" departDelay="0.00" arrival="161.00" arrivalLane="u_turn_to_east_0" arrivalPos="900.00" arrivalSpeed="12.24" duration="153.00" routeLength="1802.58" waitingTime="0.00" waitingCount="0" stopTime="0.00" timeLoss="6.95" rerouteNo="0" devices="tripinfo_flow_east_to_east_rickshaw.1" vType="motorcycleDist2" speedFactor="0.89" vaporized=""/>
    <tripinfo id="flow_north_to_south.6" depart="12.00" departLane="north_to_0_3" departPos="3.10" departSpeed="13.89" departDelay="0.00" arrival="162.00" arrivalLane="0_to_south_1" arrivalPos="989.60" arrivalSpeed="13.79" duration="150.00" routeLength="1996.90" waitingTime="0.00" waitingCount="0" stopTime="0.00" timeLoss="6.08" rerouteNo="0" devices="tripinfo_flow_north_to_south.6" vType="cngDist1" speedFactor="1.05" vaporized=""/>
    <tripinfo id="flow_south_to_north.6" depart="14.00" departLane="south_to_0_2" departPos="3.10" departSpeed="13.89" departDelay="0.83" arrival="162.00" arrivalLane="0_to_north_0" arrivalPos="989.60" arrivalSpeed="13.63" duration="148.00" routeLength="1996.90" waitingTime="0.00" waitingCount="0" stopTime="0.00" timeLoss="3.44" rerouteNo="0" devices="tripinfo_flow_south_to_north.6" vType="cngDist1" speedFactor="1.03" vaporized=""/>
    <tripinfo id="flow_south_to_north.8" depart="18.00" departLane="south_to_0_2" departPos="6.10" departSpeed="13.93" departDelay="0.44" arrival="164.00" arrivalLane="0_to_north_1" arrivalPos="989.60" arrivalSpeed="13.61" duration="146.00" routeLength="1993.90" waitingTime="0.00" waitingCount="0" stopTime="0.00" timeLoss="2.74" rerouteNo="0" devices="tripinfo_flow_south_to_north.8" vType="microbusDist1" speedFactor="1.00" vaporized=""/>
    <tripinfo id="flow_south_to_north.1" depart="3.00" departLane="south_to_0_2" departPos="6.10" departSpeed="12.87" departDelay="0.81" arrival="165.00" arrivalLane="0_to_north_0" arrivalPos="989.60" arrivalSpeed="12.48" duration="162.00" routeLength="1993.90" waitingTime="0.00" waitingCount="0" stopTime="0.00" timeLoss="6.24" rerouteNo="0" devices="tripinfo_flow_south_to_north.1" vType="microbusDist1" speedFactor="0.93" vaporized=""/>
    <tripinfo id="flow_south_to_north.5" depart="11.00" departLane="south_to_0_1" departPos="2.10" departSpeed="13.45" departDelay="0.03" arrival="166.00" arrivalLane="0_to_north_0" arrivalPos="989.60" arrivalSpeed="13.38" duration="155.00" routeLength="1997.90" waitingTime="0.00" waitingCount="0" stopTime="0.00" timeLoss="6.14" rerouteNo="0" devices="tripinfo_flow_south_to_north.5" vType="motorcycleDist1" speedFactor="0.97" vaporized=""/>
    <tripinfo id="flow_north_to_south.1" depart="2.00" departLane="north_to_0_2" departPos="2.10" departSpeed="12.51" departDelay="0.00" arrival="167.00" arrivalLane="0_to_south_0" arrivalPos="989.60" arrivalSpeed="11.86" duration="165.00" routeLength="1997.90" waitingTime="0.00" waitingCount="0" stopTime="0.00" timeLoss="5.22" rerouteNo="0" devices="tripinfo_flow_north_to_south.1" vType="motorcycleDist1" speedFactor="0.90" vaporized=""/>
    <tripinfo id="flow_bus_south_to_north.0" depart="0.00" departLane="south_to_0_0" departPos="12.10" departSpeed="13.89" departDelay="0.00" arrival="168.00" arrivalLane="0_to_north_0" arrivalPos="989.60" arrivalSpeed="13.68" duration="168.00" routeLength="1987.90" waitingTime="1.00" waitingCount="1" stopTime="10.00" timeLoss="14.88" rerouteNo="0" devices="tripinfo_flow_bus_south_to_north.0" vType="busDist1" speedFactor="1.00" vaporized=""/>
    <tripinfo id="flow_south_to_west.1" depart="6.00" departLane="south_to_0_1" departPos="6.10" departSpeed="14.03" departDelay="0.46" arrival="168.00" arrivalLane="0_to_west_0" arrivalPos="983.20" arrivalSpeed="13.70" duration="162.00" routeLength="1980.90" waitingTime="5.00" waitingCount="1" stopTime="0.00" timeLoss="19.12" rerouteNo="0" devices="tripinfo_flow_south_to_west.1" vType="microbusDist3" speedFactor="1.01" vaporized=""/>
    <tripinfo id="flow_north_to_south.5" depart="10.00" departLane="north_to_0_2" departPos="3.10" departSpeed="13.85" departDelay="0.00" arrival="168.00" arrivalLane="0_to_south_1" arrivalPos="989.60" arrivalSpeed="13.35" duration="158.00" routeLength="1996.90" waitingTime="0.00" waitingCount="0" stopTime="0.00" timeLoss="13.39" rerouteNo="0" devices="tripinfo_flow_north_to_south.5" vType="cngDist1" speedFactor="1.00" vaporized=""/>
    <tripinfo id="flow_south_to_west.2" depart="12.00" departLane="south_to_0_1" departPos="5.10" departSpeed="9.72" departDelay="0.92" arrival="169.00" arrivalLane="0_to_west_1" arrivalPos="983.20" arrivalSpeed="13.79" duration="157.00" routeLength="1981.90" waitingTime="3.00" waitingCount="1" stopTime="0.00" timeLoss="15.81" rerouteNo="0" devices="tripinfo_flow_south_to_west.2" vType="carDist3" speedFactor="1.02" vaporized=""/>
    <tripinfo id="flow_south_to_west.3" depart="17.00" departLane="south_to_0_1" departPos="2.10" departSpeed="16.24" departDelay="0.39" arrival="169.00" arrivalLane="0_to_west_0" arrivalPos="983.20" arrivalSpeed="15.88" duration="152.00" routeLength="1984.90" waitingTime="2.00" waitingCount="1" stopTime="0.00" timeLoss="28.69" rerouteNo="0" devices="tripinfo_flow_south_to_west.3" vType="motorcycleDist3" speedFactor="1.17" vaporized=""/>
    <tripinfo id="flow_south_to_north.10" depart="22.00" departLane="south_to_0_3" departPos="15.10" departSpeed="13.87" departDelay="0.05" arrival="169.00" arrivalLane="0_to_north_1" arrivalPos="989.60" arrivalSpeed="13.67" duration="147.00" routeLength="1984.90" waitingTime="0.00" waitingCount="0" stopTime="0.00" timeLoss="3.61" rerouteNo="0" devices="tripinfo_flow_south_to_north.10" vType="truckDist1" speedFactor="1.00" vaporized=""/>
    <tripinfo id="flow_bus_north_to_south.0" depart="0.00" departLane="north_to_0_0" departPos="12.10" departSpeed="13.89" departDelay="0.00" arrival="170.00" arrivalLane="0_to_south_0" arrivalPos="989.60" arrivalSpeed="13.63" duration="170.00" routeLength="1987.90" waitingTime="1.00" waitingCount="1" stopTime="10.00" timeLoss="16.03" rerouteNo="0" devices="tripinfo_flow_bus_north_to_south.0" vType="busDist1" speedFactor="1.00" vaporized=""/>
    <tripinfo id="flow_north_to_south.13" depart="26.00" departLane="north_to_0_3" departPos="2.10" departSpeed="14.34" departDelay="0.00" arrival="170.00" arrivalLane="0_to_south_1" arrivalPos="989.60" arrivalSpeed="14.03" duration="144.00" routeLength="1997.90" waitingTime="0.00" waitingCount="0" stopTime="0.00" timeLoss="4.14" rerouteNo="0" devices="tripinfo_flow_north_to_south.13" vType="motorcycleDist1" speedFactor="1.03" vaporized=""/>
    <tripinfo id="flow_north_to_east.3" depart="9.00" departLane="north_to_0_1" departPos="3.10" departSpeed="13.89" departDelay="0.00" arrival="171.00" arrivalLane="u_turn_to_east_1" arrivalPos="900.00" arrivalSpeed="13.33" duration="162.00" routeLength="1984.00" waitingTime="5.00" waitingCount="1" stopTime="0.00" timeLoss="17.87" rerouteNo="0" devices="tripinfo_flow_north_to_east.3" vType="cngDist2" speedFactor="1.06" vaporized=""/>
    <tripinfo id="flow_north_to_south.11" depart="22.00" departLane="north_to_0_3" departPos="5.10" departSpeed="13.71" departDelay="0.00" arrival="172.00" arrivalLane="0_to_south_0" arrivalPos="989.60" arrivalSpeed="13.63" duration="150.00" routeLength="1994.90" waitingTime="0.00" waitingCount="0" stopTime="0.00" timeLoss="3.73" rerouteNo="0" devices="tripinfo_flow_north_to_south.11" vType="carDist1" speedFactor="0.99" vaporized=""/>
    <tripinfo id="flow_north_to_south.12" depart="24.00" departLane="north_to_0_1" departPos="3.10" departSpeed="13.53" departDelay="0.00" arrival="176.00" arrivalLane="0_to_south_1" arrivalPos="989.60" arrivalSpeed="13.36" duration="152.00" routeLength="1996.90" waitingTime="0.00" waitingCount="0" stopTime="0.00" timeLoss="4.33" rerouteNo="0" devices="tripinfo_flow_north_to_south.12" vType="cngDist1" speedFactor="0.97" vaporized=""/>
    <tripinfo id="flow_north_to_south.21" depart="42.00" departLane="north_to_0_3" departPos="6.10" departSpeed="16.35" departDelay="0.00" arrival="176.00" arrivalLane="0_to_south_2" arrivalPos="989.60" arrivalSpeed="16.03" duration="134.00" routeLength="1993.90" waitingTime="0.00" waitingCount="0" stopTime="0.00" timeLoss="11.70" rerouteNo="0" devices="tripinfo_flow_north_to_south.21" vType="microbusDist1" speedFactor="1.18" vaporized=""/>
    <tripinfo id="flow_north_to_south.3" depart="6.00" departLane="north_to_0_2" departPos="6.10" departSpeed="12.36" departDelay="0.00" arrival="177.00" arrivalLane="0_to_south_0" arrivalPos="989.60" arrivalSpeed="12.05" duration="171.00" routeLength="1993.90" waitingTime="0.00" waitingCount="0" stopTime="0.00" timeLoss="9.34" rerouteNo="0" devices="tripinfo_flow_north_to_south.3" vType="microbusDist1" speedFactor="0.89" vaporized=""/>
    <tripinfo id="flow_south_to_north.15" depart="33.00" departLane="south_to_0_2" departPos="2.10" departSpeed="14.68" departDelay="0.08" arrival="177.00" arrivalLane="0_to_north_0" arrivalPos="989.60" arrivalSpeed="13.93" duration="144.00" routeLength="1997.90" waitingTime="0.00" waitingCount="0" stopTime="0.00" timeLoss="7.69" rerouteNo="0" devices="tripinfo_flow_south_to_north.15" vType="motorcycleDist1" speedFactor="1.06" vaporized=""/>
    <tripinfo id="flow_north_to_south.15" depart="30.00" departLane="north_to_0_3" departPos="2.10" departSpeed="13.91" departDelay="0.00" arrival="178.00" arrivalLane="0_to_south_1" arrivalPos="989.60" arrivalSpeed="13.66" duration="148.00" routeLength="1997.90" waitingTime="0.00" waitingCount="0" stopTime="0.00" timeLoss="4.18" rerouteNo="0" devices="tripinfo_flow_north_to_south.15" vType="motorcycleDist1" speedFactor="1.00" vaporized=""/>
    <tripinfo id="flow_north_to_south.14" depart="28.00" departLane="north_to_0_2" departPos="3.10" departSpeed="13.89" departDelay="0.00" arrival="179.00" arrivalLane="0_to_south_0" arrivalPos="989.60" arrivalSpeed="13.64" duration="151.00" routeLength="1996.90" waitingTime="0.00" waitingCount="0" stopTime="0.00" timeLoss="6.49" rerouteNo="0" devices="tripinfo_flow_north_to_south.14" vType="cngDist1" speedFactor="1.04" vaporized=""/>
    <tripinfo id="flow_south_to_west.4" depart="23.00" departLane="south_to_0_1" departPos="2.10" departSpeed="9.70" departDelay="0.85" arrival="180.00" arrivalLane="0_to_west_0" arrivalPos="983.20" arrivalSpeed="13.16" duration="157.00" routeLength="1984.90" waitingTime="0.00" waitingCount="0" stopTime="0.00" timeLoss="6.86" rerouteNo="0" devices="tripinfo_flow_south_to_west.4" vType="motorcycleDist3" speedFactor="0.96" vaporized=""/>
    <tripinfo id="flow_north_to_south.24" depart="48.00" departLane="north_to_0_3" departPos="6.10" departSpeed="15.32" departDelay="0.00" arrival="181.00" arrivalLane="0_to_south_1" arrivalPos="989.60" arrivalSpeed="15.09" duration="133.00" routeLength="1993.90" waitingTime="0.00" waitingCount="0" stopTime="0.00" timeLoss="2.41" rerouteNo="0" devices="tripinfo_flow_north_to_south.24" vType="microbusDist1" speedFactor="1.10" vaporized=""/>
    <tripinfo id="flow_north_to_south.8" depart="16.00" departLane="north_to_0_3" departPos="6.10" departSpeed="12.18" departDelay="0.00" arrival="183.00" arrivalLane="0_to_south_0" arrivalPos="989.60" arrivalSpeed="11.81" duration="167.00" routeLength="1993.90" waitingTime="0.00" waitingCount="0" stopTime="0.00" timeLoss="2.78" rerouteNo="0" devices="tripinfo_flow_north_to_south.8" vType="microbusDist1" speedFactor="0.88" vaporized=""/>
    <tripinfo id="flow_south_to_north.21" depart="47.00" departLane="south_to_0_2" departPos="2.10" departSpeed="15.53" departDelay="0.91" arrival="183.00" arrivalLane="0_to_north_0" arrivalPos="989.60" arrivalSpeed="15.03" duration="136.00" routeLength="1997.90" waitingTime="0.00" waitingCount="0" stopTime="0.00" timeLoss="6.89" rerouteNo="0" devices="tripinfo_flow_south_to_north.21" vType="motorcycleDist1" speedFactor="1.12" vaporized=""/>
    <tripinfo id="flow_east_to_east_rickshaw.2" depart="16.00" departLane="east_to_u_turn_1" departPos="3.10" departSpeed="2.10" departDelay="0.00" arrival="184.00" arrivalLane="u_turn_to_east_1" arrivalPos="900.00" arrivalSpeed="13.77" duration="168.00" routeLength="1801.58" waitingTime="22.00" waitingCount="1" stopTime="0.00" timeLoss="36.83" rerouteNo="0" devices="tripinfo_flow_east_to_east_rickshaw.2" vType="cngDist2" speedFactor="1.03" vaporized=""/>
    <tripinfo id="flow_north_to_south.19" depart="38.00" departLane="north_to_0_3" departPos="2.10" departSpeed="14.08" departDelay="0.00" arrival="184.00" arrivalLane="0_to_south_1" arrivalPos="989.60" arrivalSpeed="13.75" duration="146.00" routeLength="1997.90" waitingTime="0.00" waitingCount="0" stopTime="0.00" timeLoss="3.95" rerouteNo="0" devices="tripinfo_flow_north_to_south.19" vType="motorcycleDist1" speedFactor="1.01" vaporized=""/>
    <tripinfo id="flow_north_to_east.6" depart="18.00" departLane="north_to_0_1" departPos="5.10" departSpeed="12.49" departDelay="0.00" arrival="185.00" arrivalLane="u_turn_to_east_0" arrivalPos="900.00" arrivalSpeed="12.46" duration="167.00" routeLength="1982.00" waitingTime="0.00" waitingCount="0" stopTime="0.00" timeLoss="6.98" rerouteNo="0" devices="tripinfo_flow_north_to_east.6" vType="carDist2" speedFactor="0.90" vaporized=""/>
    <tripinfo id="flow_east_to_east_rickshaw.4" depart="32.00" departLane="east_to_u_turn_1" departPos="2.10" departSpeed="14.62" departDelay="0.00" arrival="185.00" arrivalLane="u_turn_to_east_1" arrivalPos="900.00" arrivalSpeed="13.96" duration="153.00" routeLength="1802.58" waitingTime="18.00" waitingCount="1" stopTime="0.00" timeLoss="28.36" rerouteNo="0" devices="tripinfo_flow_east_to_east_rickshaw.4" vType="motorcycleDist2" speedFactor="1.05" vaporized=""/>
    <tripinfo id="flow_south_to_north.16" depart="36.00" departLane="south_to_0_3" departPos="3.10" departSpeed="13.74" departDelay="0.88" arrival="185.00" arrivalLane="0_to_north_1" arrivalPos="989.60" arrivalSpeed="13.40" duration="149.00" routeLength="1996.90" waitingTime="0.00" waitingCount="0" stopTime="0.00" timeLoss="3.30" rerouteNo="0" devices="tripinfo_flow_south_to_north.16" vType="cngDist1" speedFactor="0.99" vaporized=""/>
    <tripinfo id="flow_north_to_south.20" depart="40.00" departLane="north_to_0_2" departPos="5.10" departSpeed="14.18" departDelay="0.00" arrival="185.00" arrivalLane="0_to_south_0" arrivalPos="989.60" arrivalSpeed="13.71" duration="145.00" routeLength="1994.90" waitingTime="0.00" waitingCount="0" stopTime="0.00" timeLoss="3.44" rerouteNo="0" devices="tripinfo_flow_north_to_south.20" vType="carDist1" speedFactor="1.02" vaporized=""/>
    <tripinfo id="flow_south_to_north.14" depart="31.00" departLane="south_to_0_3" departPos="6.10" departSpeed="13.09" departDelay="0.27" arrival="186.00" arrivalLane="0_to_north_0" arrivalPos="989.60" arrivalSpeed="12.74" duration="155.00" routeLength="1993.90" waitingTime="0.00" waitingCount="0" stopTime="0.00" timeLoss="2.37" rerouteNo="0" devices="tripinfo_flow_south_to_north.14" vType="microbusDist1" speedFactor="0.94" vaporized=""/>
    <tripinfo id="flow_south_to_north.26" depart="58.00" departLane="south_to_0_3" departPos="2.10" departSpeed="16.38" departDelay="0.93" arrival="186.00" arrivalLane="0_to_north_1" arrivalPos="989.60" arrivalSpeed="15.63" duration="128.00" routeLength="1997.90" waitingTime="0.00" waitingCount="0" stopTime="0.00" timeLoss="5.93" rerouteNo="0" devices="tripinfo_flow_south_to_north.26" vType="motorcycleDist1" speedFactor="1.18" vaporized=""/>
    <tripinfo id="flow_east_to_east_rickshaw.5" depart="40.00" departLane="east_to_u_turn_1" departPos="2.10" departSpeed="15.23" departDelay="0.00" arrival="187.00" arrivalLane="u_turn_to_east_1" arrivalPos="900.00" arrivalSpeed="14.54" duration="147.00" routeLength="1802.58" waitingTime="15.00" waitingCount="1" stopTime="0.00" timeLoss="26.63" rerouteNo="0" devices="tripinfo_flow_east_to_east_rickshaw.5" vType="motorcycleDist2" speedFactor="1.10" vaporized=""/>
    <tripinfo id="flow_bus_north_to_south.1" depart="23.00" departLane="north_to_0_0" departPos="12.10" departSpeed="13.89" departDelay="0.50" arrival="188.00" arrivalLane="0_to_south_0" arrivalPos="989.60" arrivalSpeed="13.81" duration="165.00" routeLength="1987.90" waitingTime="1.00" waitingCount="1" stopTime="10.00" timeLoss="11.72" rerouteNo="0" devices="tripinfo_flow_bus_north_to_south.1" vType="busDist1" speedFactor="1.00" vaporized=""/>
    <tripinfo id="flow_east_to_east.2" depart="29.00" departLane="east_to_u_turn_1" departPos="2.10" departSpeed="14.20" departDelay="0.20" arrival="188.00" arrivalLane="u_turn_to_east_1" arrivalPos="900.00" arrivalSpeed="13.48" duration="159.00" routeLength="1802.58" waitingTime="18.00" waitingCount="1" stopTime="0.00" timeLoss="31.15" rerouteNo="0" devices="tripinfo_flow_east_to_east.2" vType="motorcycleDist2" speedFactor="1.02" vaporized=""/>
    <tripinfo id="flow_north_to_east.4" depart="12.00" departLane="north_to_0_1" departPos="6.10" departSpeed="11.60" departDelay="0.00" arrival="189.00" arrivalLane="u_turn_to_east_0" arrivalPos="900.00" arrivalSpeed="11.51" duration="177.00" routeLength="1981.00" waitingTime="0.00" waitingCount="0" stopTime="0.00" timeLoss="4.03" rerouteNo="0" devices="tripinfo_flow_north_to_east.4" vType="microbusDist2" speedFactor="0.83" vaporized=""/>
    <tripinfo id="flow_north_to_east.7" depart="21.00" departLane="north_to_0_1" departPos="2.10" departSpeed="15.55" departDelay="0.00" arrival="189.00" arrivalLane="u_turn_to_east_1" arrivalPos="900.00" arrivalSpeed="15.16" duration="168.00" routeLength="1985.00" waitingTime="5.00" waitingCount="1" stopTime="0.00" timeLoss="39.71" rerouteNo="0" devices="tripinfo_flow_north_to_east.7" vType="motorcycleDist2" speedFactor="1.12" vaporized=""/>
    <tripinfo id="flow_south_to_north.12" depart="27.00" departLane="south_to_0_2" departPos="2.10" departSpeed="12.76" departDelay="0.66" arrival="189.00" arrivalLane="0_to_north_0" arrivalPos="989.60" arrivalSpeed="12.46" duration="162.00" routeLength="1997.90" waitingTime="0.00" waitingCount="0" stopTime="0.00" timeLoss="4.85" rerouteNo="0" devices="tripinfo_flow_south_to_north.12" vType="motorcycleDist1" speedFactor="0.92" vaporized=""/>
    <tripinfo id="flow_east_to_east_rickshaw.3" depart="25.00" departLane="east_to_u_turn_1" departPos="2.10" departSpeed="11.55" departDelay="1.00" arrival="190.00" arrivalLane="u_turn_to_east_0" arrivalPos="900.00" arrivalSpeed="13.84" duration="165.00" routeLength="1802.58" waitingTime="21.00" waitingCount="1" stopTime="0.00" timeLoss="40.95" rerouteNo="0" devices="tripinfo_flow_east_to_east_rickshaw.3" vType="motorcycleDist2" speedFactor="1.06" vaporized=""/>
    <tripinfo id="flow_bus_south_to_north.1" depart="24.00" departLane="south_to_0_0" departPos="12.10" departSpeed="13.89" departDelay="0.00" arrival="191.00" arrivalLane="0_to_north_0" arrivalPos="989.60" arrivalSpeed="13.76" duration="167.00" routeLength="1987.90" waitingTime="1.00" waitingCount="1" stopTime="10.00" timeLoss="13.63" rerouteNo="0" devices="tripinfo_flow_bus_south_to_north.1" vType="busDist1" speedFactor="1.00" vaporized=""/>
    <tripinfo id="flow_north_to_south.17" depart="34.00" departLane="north_to_0_0" departPos="12.10" departSpeed="13.89" departDelay="0.00" arrival="191.00" arrivalLane="0_to_south_0" arrivalPos="989.60" arrivalSpeed="13.87" duration="157.00" routeLength="1987.90" waitingTime="2.00" waitingCount="1" stopTime="0.00" timeLoss="13.20" rerouteNo="0" devices="tripinfo_flow_north_to_south.17" vType="busDist1" speedFactor="1.00" vaporized=""/>
    <tripinfo id="flow_east_to_east.3" depart="44.00" departLane="east_to_u_turn_1" departPos="5.10" departSpeed="14.34" departDelay="0.80" arrival="191.00" arrivalLane="u_turn_to_east_1" arrivalPos="900.00" arrivalSpeed="14.15" duration="147.00" routeLength="1799.58" waitingTime="8.00" waitingCount="1" stopTime="0.00" timeLoss="19.85" rerouteNo="0" devices="tripinfo_flow_east_to_east.3" vType="carDist2" speedFactor="1.03" vaporized=""/>
    <tripinfo id="flow_south_to_north.22" depart="49.00" departLane="south_to_0_3" departPos="5.10" departSpeed="14.38" departDelay="0.71" arrival="191.00" arrivalLane="0_to_north_1" arrivalPos="989.60" arrivalSpeed="14.13" duration="142.00" routeLength="1994.90" waitingTime="0.00" waitingCount="0" stopTime="0.00" timeLoss="2.78" rerouteNo="0" devices="tripinfo_flow_south_to_north.22" vType="carDist1" speedFactor="1.04" vaporized=""/>
    <tripinfo id="flow_east_to_east_rickshaw.6" depart="49.00" departLane="east_to_u_turn_1" departPos="2.10" departSpeed="10.36" departDelay="1.00" arrival="192.00" arrivalLane="u_turn_to_east_0" arrivalPos="900.00" arrivalSpeed="13.83" duration="143.00" routeLength="1802.58" waitingTime="0.00" waitingCount="0" stopTime="0.00" timeLoss="17.12" rerouteNo="0" devices="tripinfo_flow_east_to_east_rickshaw.6" vType="motorcycleDist2" speedFactor="1.04" vaporized=""/>