<?xml version="1.0" encoding="UTF-8"?>

<!-- generated on 2025-04-21 20:24:51 by Eclipse SUMO GUI Version 1.21.0
<sumoConfiguration xmlns:xsi="http://www.w3.org/2001/XMLSchema-instance" xsi:noNamespaceSchemaLocation="http://sumo.dlr.de/xsd/sumoConfiguration.xsd">

    <input>
        <net-file value="E:\CE\MRT Traffic Management\baseline\network.net.xml"/>
        <route-files value="E:\CE\MRT Traffic Management\baseline\routes.rou.xml"/>
        <additional-files value="E:\CE\MRT Traffic Management\baseline\busBay.add.xml"/>
    </input>

    <output>
        <summary-output value="E:\CE\MRT Traffic Management\baseline\summary.xml"/>
        <tripinfo-output value="E:\CE\MRT Traffic Management\baseline\tripinfo.xml"/>
    </output>

    <time>
        <begin value="0"/>
        <end value="3600"/>
    </time>

</sumoConfiguration>
-->

<tripinfos xmlns:xsi="http://www.w3.org/2001/XMLSchema-instance" xsi:noNamespaceSchemaLocation="http://sumo.dlr.de/xsd/tripinfo_file.xsd">
    <tripinfo id="flow_east_to_east.0" depart="0.00" departLane="east_to_u_turn_1" departPos="5.10" departSpeed="15.15" departDelay="0.00" arrival="125.00" arrivalLane="u_turn_to_east_0" arrivalPos="900.00" arrivalSpeed="14.95" duration="125.00" routeLength="1799.58" waitingTime="0.00" waitingCount="0" stopTime="0.00" timeLoss="5.08" rerouteNo="0" devices="tripinfo_flow_east_to_east.0" vType="carDist2" speedFactor="1.09" vaporized=""/>
    <tripinfo id="flow_west_to_north.0" depart="0.00" departLane="west_to_0_0" departPos="2.10" departSpeed="14.53" departDelay="0.00" arrival="143.00" arrivalLane="0_to_north_0" arrivalPos="989.60" arrivalSpeed="14.31" duration="143.00" routeLength="1979.73" waitingTime="0.00" waitingCount="0" stopTime="0.00" timeLoss="5.02" rerouteNo="0" devices="tripinfo_flow_west_to_north.0" vType="motorcycleDist3" speedFactor="1.05" vaporized=""/>
    <tripinfo id="flow_west_to_north.2" depart="12.00" departLane="west_to_0_1" departPos="2.10" departSpeed="15.31" departDelay="0.92" arrival="147.00" arrivalLane="0_to_north_0" arrivalPos="989.60" arrivalSpeed="14.88" duration="135.00" routeLength="1979.73" waitingTime="0.00" waitingCount="0" stopTime="0.00" timeLoss="4.84" rerouteNo="0" devices="tripinfo_flow_west_to_north.2" vType="motorcycleDist3" speedFactor="1.10" vaporized=""/>
    <tripinfo id="flow_east_to_east.1" depart="15.00" departLane="east_to_u_turn_1" departPos="6.10" departSpeed="14.18" departDelay="0.60" arrival="148.00" arrivalLane="u_turn_to_east_0" arrivalPos="900.00" arrivalSpeed="14.18" duration="133.00" routeLength="1798.58" waitingTime="0.00" waitingCount="0" stopTime="0.00" timeLoss="5.29" rerouteNo="0" devices="tripinfo_flow_east_to_east.1" vType="microbusDist2" speedFactor="1.02" vaporized=""/>
    <tripinfo id="flow_south_to_north.4" depart="8.00" departLane="south_to_0_3" departPos="2.10" departSpeed="15.72" departDelay="0.38" arrival="149.00" arrivalLane="0_to_north_0" arrivalPos="989.60" arrivalSpeed="15.48" duration="141.00" routeLength="1997.90" waitingTime="5.00" waitingCount="1" stopTime="0.00" timeLoss="13.78" rerouteNo="0" devices="tripinfo_flow_south_to_north.4" vType="motorcycleDist1" speedFactor="1.13" vaporized=""/>
    <tripinfo id="flow_north_to_south.1" depart="2.00" departLane="north_to_0_2" departPos="2.10" departSpeed="15.60" departDelay="0.26" arrival="150.00" arrivalLane="0_to_south_1" arrivalPos="989.60" arrivalSpeed="14.96" duration="148.00" routeLength="1997.90" waitingTime="11.00" waitingCount="1" stopTime="0.00" timeLoss="19.88" rerouteNo="0" devices="tripinfo_flow_north_to_south.1" vType="motorcycleDist1" speedFactor="1.12" vaporized=""/>
    <tripinfo id="flow_east_to_south.1" depart="4.00" departLane="east_to_u_turn_1" departPos="12.10" departSpeed="13.89" departDelay="0.57" arrival="151.00" arrivalLane="0_to_south_0" arrivalPos="989.60" arrivalSpeed="13.65" duration="147.00" routeLength="1969.83" waitingTime="0.00" waitingCount="0" stopTime="0.00" timeLoss="4.42" rerouteNo="0" devices="tripinfo_flow_east_to_south.1" vType="busDist2" speedFactor="1.00" vaporized=""/>
    <tripinfo id="flow_south_to_north.7" depart="14.00" departLane="south_to_0_3" departPos="2.10" departSpeed="14.80" departDelay="0.67" arrival="153.00" arrivalLane="0_to_north_0" arrivalPos="989.60" arrivalSpeed="14.27" duration="139.00" routeLength="1997.90" waitingTime="0.00" waitingCount="0" stopTime="0.00" timeLoss="3.45" rerouteNo="0" devices="tripinfo_flow_south_to_north.7" vType="motorcycleDist1" speedFactor="1.07" vaporized=""/>
    <tripinfo id="flow_north_to_south.2" depart="4.00" departLane="north_to_0_3" departPos="2.10" departSpeed="14.47" departDelay="0.52" arrival="155.00" arrivalLane="0_to_south_0" arrivalPos="989.60" arrivalSpeed="14.41" duration="151.00" routeLength="1997.90" waitingTime="4.00" waitingCount="1" stopTime="0.00" timeLoss="12.49" rerouteNo="0" devices="tripinfo_flow_north_to_south.2" vType="motorcycleDist1" speedFactor="1.04" vaporized=""/>
    <tripinfo id="flow_south_to_north.11" depart="21.00" departLane="south_to_0_1" departPos="2.10" departSpeed="15.55" departDelay="0.05" arrival="155.00" arrivalLane="0_to_north_1" arrivalPos="989.60" arrivalSpeed="15.33" duration="134.00" routeLength="1997.90" waitingTime="0.00" waitingCount="0" stopTime="0.00" timeLoss="4.77" rerouteNo="0" devices="tripinfo_flow_south_to_north.11" vType="motorcycleDist1" speedFactor="1.12" vaporized=""/>
    <tripinfo id="flow_south_to_north.0" depart="0.00" departLane="south_to_0_1" departPos="2.10" departSpeed="14.31" departDelay="0.00" arrival="156.00" arrivalLane="0_to_north_0" arrivalPos="989.60" arrivalSpeed="13.88" duration="156.00" routeLength="1997.90" waitingTime="7.00" waitingCount="1" stopTime="0.00" timeLoss="15.85" rerouteNo="0" devices="tripinfo_flow_south_to_north.0" vType="motorcycleDist1" speedFactor="1.03" vaporized=""/>
    <tripinfo id="flow_north_to_south.10" depart="18.00" departLane="north_to_0_2" departPos="6.10" departSpeed="15.29" departDelay="0.61" arrival="156.00" arrivalLane="0_to_south_1" arrivalPos="989.60" arrivalSpeed="15.15" duration="138.00" routeLength="1993.90" waitingTime="0.00" waitingCount="0" stopTime="0.00" timeLoss="7.35" rerouteNo="0" devices="tripinfo_flow_north_to_south.10" vType="microbusDist1" speedFactor="1.10" vaporized=""/>
    <tripinfo id="flow_south_to_north.6" depart="12.00" departLane="south_to_0_2" departPos="5.10" departSpeed="14.16" departDelay="0.57" arrival="157.00" arrivalLane="0_to_north_1" arrivalPos="989.60" arrivalSpeed="13.74" duration="145.00" routeLength="1994.90" waitingTime="0.00" waitingCount="0" stopTime="0.00" timeLoss="3.92" rerouteNo="0" devices="tripinfo_flow_south_to_north.6" vType="carDist1" speedFactor="1.02" vaporized=""/>
    <tripinfo id="flow_north_to_south.9" depart="16.00" departLane="north_to_0_3" departPos="2.10" departSpeed="14.77" departDelay="0.35" arrival="157.00" arrivalLane="0_to_south_0" arrivalPos="989.60" arrivalSpeed="14.11" duration="141.00" routeLength="1997.90" waitingTime="0.00" waitingCount="0" stopTime="0.00" timeLoss="5.20" rerouteNo="0" devices="tripinfo_flow_north_to_south.9" vType="motorcycleDist1" speedFactor="1.06" vaporized=""/>
    <tripinfo id="flow_south_to_north.13" depart="25.00" departLane="south_to_0_2" departPos="2.10" departSpeed="15.52" departDelay="0.24" arrival="158.00" arrivalLane="0_to_north_2" arrivalPos="989.60" arrivalSpeed="15.48" duration="133.00" routeLength="1997.90" waitingTime="0.00" waitingCount="0" stopTime="0.00" timeLoss="4.22" rerouteNo="0" devices="tripinfo_flow_south_to_north.13" vType="motorcycleDist1" speedFactor="1.12" vaporized=""/>
    <tripinfo id="flow_north_to_south.7" depart="13.00" departLane="north_to_0_3" departPos="2.10" departSpeed="14.31" departDelay="0.83" arrival="159.00" arrivalLane="0_to_south_0" arrivalPos="989.60" arrivalSpeed="13.63" duration="146.00" routeLength="1997.90" waitingTime="0.00" waitingCount="0" stopTime="0.00" timeLoss="5.92" rerouteNo="0" devices="tripinfo_flow_north_to_south.7" vType="motorcycleDist1" speedFactor="1.03" vaporized=""/>
    <tripinfo id="flow_south_to_north.5" depart="10.00" departLane="south_to_0_1" departPos="3.10" departSpeed="13.89" departDelay="0.48" arrival="161.00" arrivalLane="0_to_north_0" arrivalPos="989.60" arrivalSpeed="13.34" duration="151.00" routeLength="1996.90" waitingTime="0.00" waitingCount="0" stopTime="0.00" timeLoss="6.64" rerouteNo="0" devices="tripinfo_flow_south_to_north.5" vType="cngDist1" speedFactor="1.06" vaporized=""/>
    <tripinfo id="flow_north_to_east.0" depart="1.00" departLane="north_to_0_1" departPos="3.10" departSpeed="9.82" departDelay="1.00" arrival="162.00" arrivalLane="u_turn_to_east_0" arrivalPos="900.00" arrivalSpeed="13.02" duration="161.00" routeLength="1984.00" waitingTime="2.00" waitingCount="1" stopTime="0.00" timeLoss="12.64" rerouteNo="0" devices="tripinfo_flow_north_to_east.0" vType="cngDist2" speedFactor="0.97" vaporized=""/>
    <tripinfo id="flow_north_to_south.3" depart="6.00" departLane="north_to_0_2" departPos="3.10" departSpeed="13.12" departDelay="0.78" arrival="163.00" arrivalLane="0_to_south_0" arrivalPos="989.60" arrivalSpeed="13.10" duration="157.00" routeLength="1996.90" waitingTime="0.00" waitingCount="0" stopTime="0.00" timeLoss="4.80" rerouteNo="0" devices="tripinfo_flow_north_to_south.3" vType="cngDist1" speedFactor="0.94" vaporized=""/>
    <tripinfo id="flow_south_to_north.9" depart="18.00" departLane="south_to_0_3" departPos="6.10" departSpeed="13.93" departDelay="0.86" arrival="164.00" arrivalLane="0_to_north_1" arrivalPos="989.60" arrivalSpeed="13.68" duration="146.00" routeLength="1993.90" waitingTime="0.00" waitingCount="0" stopTime="0.00" timeLoss="2.24" rerouteNo="0" devices="tripinfo_flow_south_to_north.9" vType="microbusDist1" speedFactor="1.00" vaporized=""/>
    <tripinfo id="flow_east_to_east.2" depart="29.00" departLane="east_to_u_turn_1" departPos="5.10" departSpeed="8.68" departDelay="0.20" arrival="164.00" arrivalLane="u_turn_to_east_0" arrivalPos="900.00" arrivalSpeed="14.13" duration="135.00" routeLength="1799.58" waitingTime="0.00" waitingCount="0" stopTime="0.00" timeLoss="7.32" rerouteNo="0" devices="tripinfo_flow_east_to_east.2" vType="carDist2" speedFactor="1.02" vaporized=""/>
    <tripinfo id="flow_south_to_north.1" depart="2.00" departLane="south_to_0_2" departPos="3.10" departSpeed="13.35" departDelay="0.10" arrival="165.00" arrivalLane="0_to_north_0" arrivalPos="989.60" arrivalSpeed="12.99" duration="163.00" routeLength="1996.90" waitingTime="1.00" waitingCount="1" stopTime="0.00" timeLoss="12.54" rerouteNo="0" devices="tripinfo_flow_south_to_north.1" vType="cngDist1" speedFactor="0.96" vaporized=""/>
    <tripinfo id="flow_bus_north_to_south.0" depart="0.00" departLane="north_to_0_0" departPos="12.10" departSpeed="13.89" departDelay="0.00" arrival="166.00" arrivalLane="0_to_south_0" arrivalPos="989.60" arrivalSpeed="13.64" duration="166.00" routeLength="1987.90" waitingTime="1.00" waitingCount="1" stopTime="10.00" timeLoss="12.75" rerouteNo="0" devices="tripinfo_flow_bus_north_to_south.0" vType="busDist1" speedFactor="1.00" vaporized=""/>
    <tripinfo id="flow_north_to_south.12" depart="21.00" departLane="north_to_0_3" departPos="15.10" departSpeed="13.87" departDelay="0.13" arrival="166.00" arrivalLane="0_to_south_1" arrivalPos="989.60" arrivalSpeed="13.74" duration="145.00" routeLength="1984.90" waitingTime="0.00" waitingCount="0" stopTime="0.00" timeLoss="1.83" rerouteNo="0" devices="tripinfo_flow_north_to_south.12" vType="truckDist1" speedFactor="1.00" vaporized=""/>
    <tripinfo id="flow_bus_south_to_north.0" depart="0.00" departLane="south_to_0_0" departPos="12.10" departSpeed="13.89" departDelay="0.00" arrival="167.00" arrivalLane="0_to_north_0" arrivalPos="989.60" arrivalSpeed="13.64" duration="167.00" routeLength="1987.90" waitingTime="1.00" waitingCount="1" stopTime="10.00" timeLoss="13.02" rerouteNo="0" devices="tripinfo_flow_bus_south_to_north.0" vType="busDist1" speedFactor="1.00" vaporized=""/>
    <tripinfo id="flow_south_to_north.2" depart="4.00" departLane="south_to_0_3" departPos="6.10" departSpeed="12.87" departDelay="0.19" arrival="167.00" arrivalLane="0_to_north_1" arrivalPos="989.60" arrivalSpeed="12.63" duration="163.00" routeLength="1993.90" waitingTime="0.00" waitingCount="0" stopTime="0.00" timeLoss="7.92" rerouteNo="0" devices="tripinfo_flow_south_to_north.2" vType="microbusDist1" speedFactor="0.93" vaporized=""/>
    <tripinfo id="flow_north_to_south.8" depart="14.00" departLane="north_to_0_2" departPos="2.10" departSpeed="14.42" departDelay="0.09" arrival="167.00" arrivalLane="0_to_south_2" arrivalPos="989.60" arrivalSpeed="14.31" duration="153.00" routeLength="1997.90" waitingTime="0.00" waitingCount="0" stopTime="0.00" timeLoss="14.27" rerouteNo="0" devices="tripinfo_flow_north_to_south.8" vType="motorcycleDist1" speedFactor="1.04" vaporized=""/>
    <tripinfo id="flow_north_to_south.14" depart="25.00" departLane="north_to_0_2" departPos="2.10" departSpeed="14.34" departDelay="0.65" arrival="169.00" arrivalLane="0_to_south_0" arrivalPos="989.60" arrivalSpeed="14.32" duration="144.00" routeLength="1997.90" waitingTime="0.00" waitingCount="0" stopTime="0.00" timeLoss="4.31" rerouteNo="0" devices="tripinfo_flow_north_to_south.14" vType="motorcycleDist1" speedFactor="1.03" vaporized=""/>
    <tripinfo id="flow_south_to_west.1" depart="6.00" departLane="south_to_0_1" departPos="3.10" departSpeed="13.89" departDelay="0.46" arrival="172.00" arrivalLane="0_to_west_0" arrivalPos="983.20" arrivalSpeed="13.61" duration="166.00" routeLength="1983.90" waitingTime="0.00" waitingCount="0" stopTime="0.00" timeLoss="22.27" rerouteNo="0" devices="tripinfo_flow_south_to_west.1" vType="cngDist3" speedFactor="1.01" vaporized=""/>
    <tripinfo id="flow_south_to_west.3" depart="17.00" departLane="south_to_0_1" departPos="2.10" departSpeed="16.24" departDelay="0.39" arrival="173.00" arrivalLane="0_to_west_1" arrivalPos="983.20" arrivalSpeed="15.72" duration="156.00" routeLength="1984.90" waitingTime="0.00" waitingCount="0" stopTime="0.00" timeLoss="32.97" rerouteNo="0" devices="tripinfo_flow_south_to_west.3" vType="motorcycleDist3" speedFactor="1.17" vaporized=""/>
    <tripinfo id="flow_south_to_north.16" depart="31.00" departLane="south_to_0_2" departPos="2.10" departSpeed="14.62" departDelay="0.52" arrival="173.00" arrivalLane="0_to_north_0" arrivalPos="989.60" arrivalSpeed="13.90" duration="142.00" routeLength="1997.90" waitingTime="0.00" waitingCount="0" stopTime="0.00" timeLoss="5.26" rerouteNo="0" devices="tripinfo_flow_south_to_north.16" vType="motorcycleDist1" speedFactor="1.05" vaporized=""/>
    <tripinfo id="flow_north_to_south.23" depart="40.00" departLane="north_to_0_3" departPos="2.10" departSpeed="15.71" departDelay="0.00" arrival="173.00" arrivalLane="0_to_south_2" arrivalPos="989.60" arrivalSpeed="15.41" duration="133.00" routeLength="1997.90" waitingTime="0.00" waitingCount="0" stopTime="0.00" timeLoss="5.60" rerouteNo="0" devices="tripinfo_flow_north_to_south.23" vType="motorcycleDist1" speedFactor="1.13" vaporized=""/>
    <tripinfo id="flow_north_to_south.16" depart="28.00" departLane="north_to_0_3" departPos="2.10" departSpeed="14.20" departDelay="0.18" arrival="174.00" arrivalLane="0_to_south_0" arrivalPos="989.60" arrivalSpeed="14.08" duration="146.00" routeLength="1997.90" waitingTime="0.00" waitingCount="0" stopTime="0.00" timeLoss="4.31" rerouteNo="0" devices="tripinfo_flow_north_to_south.16" vType="motorcycleDist1" speedFactor="1.02" vaporized=""/>
    <tripinfo id="flow_north_to_south.5" depart="9.00" departLane="north_to_0_3" departPos="2.10" departSpeed="12.42" departDelay="0.31" arrival="176.00" arrivalLane="0_to_south_0" arrivalPos="989.60" arrivalSpeed="11.93" duration="167.00" routeLength="1997.90" waitingTime="0.00" waitingCount="0" stopTime="0.00" timeLoss="5.74" rerouteNo="0" devices="tripinfo_flow_north_to_south.5" vType="motorcycleDist1" speedFactor="0.89" vaporized=""/>
    <tripinfo id="flow_north_to_south.21" depart="37.00" departLane="north_to_0_3" departPos="5.10" departSpeed="14.79" departDelay="0.48" arrival="176.00" arrivalLane="0_to_south_1" arrivalPos="989.60" arrivalSpeed="14.78" duration="139.00" routeLength="1994.90" waitingTime="0.00" waitingCount="0" stopTime="0.00" timeLoss="3.39" rerouteNo="0" devices="tripinfo_flow_north_to_south.21" vType="carDist1" speedFactor="1.06" vaporized=""/>
    <tripinfo id="flow_north_to_south.6" depart="11.00" departLane="north_to_0_2" departPos="2.10" departSpeed="13.82" departDelay="0.57" arrival="177.00" arrivalLane="0_to_south_0" arrivalPos="989.60" arrivalSpeed="13.18" duration="166.00" routeLength="1997.90" waitingTime="0.00" waitingCount="0" stopTime="0.00" timeLoss="21.23" rerouteNo="0" devices="tripinfo_flow_north_to_south.6" vType="motorcycleDist1" speedFactor="0.99" vaporized=""/>
    <tripinfo id="flow_north_to_south.20" depart="35.00" departLane="north_to_0_2" departPos="2.10" departSpeed="14.90" departDelay="0.22" arrival="178.00" arrivalLane="0_to_south_1" arrivalPos="989.60" arrivalSpeed="14.51" duration="143.00" routeLength="1997.90" waitingTime="0.00" waitingCount="0" stopTime="0.00" timeLoss="8.79" rerouteNo="0" devices="tripinfo_flow_north_to_south.20" vType="motorcycleDist1" speedFactor="1.07" vaporized=""/>
    <tripinfo id="flow_south_to_west.2" depart="12.00" departLane="south_to_0_1" departPos="2.10" departSpeed="13.06" departDelay="0.92" arrival="180.00" arrivalLane="0_to_west_0" arrivalPos="983.20" arrivalSpeed="12.74" duration="168.00" routeLength="1984.90" waitingTime="0.00" waitingCount="0" stopTime="0.00" timeLoss="14.51" rerouteNo="0" devices="tripinfo_flow_south_to_west.2" vType="motorcycleDist3" speedFactor="0.94" vaporized=""/>
    <tripinfo id="flow_north_to_south.13" depart="23.00" departLane="north_to_0_3" departPos="5.10" departSpeed="12.89" departDelay="0.39" arrival="182.00" arrivalLane="0_to_south_0" arrivalPos="989.60" arrivalSpeed="12.60" duration="159.00" routeLength="1994.90" waitingTime="0.00" waitingCount="0" stopTime="0.00" timeLoss="4.06" rerouteNo="0" devices="tripinfo_flow_north_to_south.13" vType="carDist1" speedFactor="0.93" vaporized=""/>
    <tripinfo id="flow_south_to_north.8" depart="16.00" departLane="south_to_0_2" departPos="5.10" departSpeed="12.18" departDelay="0.76" arrival="184.00" arrivalLane="0_to_north_0" arrivalPos="989.60" arrivalSpeed="11.69" duration="168.00" routeLength="1994.90" waitingTime="0.00" waitingCount="0" stopTime="0.00" timeLoss="3.91" rerouteNo="0" devices="tripinfo_flow_south_to_north.8" vType="carDist1" speedFactor="0.88" vaporized=""/>
    <tripinfo id="flow_north_to_south.17" depart="30.00" departLane="north_to_0_2" departPos="6.10" departSpeed="13.09" departDelay="0.44" arrival="185.00" arrivalLane="0_to_south_1" arrivalPos="989.60" arrivalSpeed="12.71" duration="155.00" routeLength="1993.90" waitingTime="0.00" waitingCount="0" stopTime="0.00" timeLoss="2.35" rerouteNo="0" devices="tripinfo_flow_north_to_south.17" vType="microbusDist1" speedFactor="0.94" vaporized=""/>
    <tripinfo id="flow_north_to_south.0" depart="0.00" departLane="north_to_0_1" departPos="2.60" departSpeed="11.11" departDelay="0.00" arrival="186.00" arrivalLane="0_to_south_0" arrivalPos="989.60" arrivalSpeed="10.93" duration="186.00" routeLength="1997.40" waitingTime="0.00" waitingCount="0" stopTime="0.00" timeLoss="6.00" rerouteNo="0" devices="tripinfo_flow_north_to_south.0" vType="rickshawDist1" speedFactor="1.08" vaporized=""/>
    <tripinfo id="flow_south_to_north.12" depart="23.00" departLane="south_to_0_3" departPos="2.10" departSpeed="12.60" departDelay="0.14" arrival="187.00" arrivalLane="0_to_north_0" arrivalPos="989.60" arrivalSpeed="12.28" duration="164.00" routeLength="1997.90" waitingTime="0.00" waitingCount="0" stopTime="0.00" timeLoss="4.64" rerouteNo="0" devices="tripinfo_flow_south_to_north.12" vType="motorcycleDist1" speedFactor="0.91" vaporized=""/>
    <tripinfo id="flow_north_to_south.19" depart="34.00" departLane="north_to_0_3" departPos="2.10" departSpeed="13.45" departDelay="0.96" arrival="187.00" arrivalLane="0_to_south_0" arrivalPos="989.60" arrivalSpeed="13.25" duration="153.00" routeLength="1997.90" waitingTime="0.00" waitingCount="0" stopTime="0.00" timeLoss="4.42" rerouteNo="0" devices="tripinfo_flow_north_to_south.19" vType="motorcycleDist1" speedFactor="0.97" vaporized=""/>
    <tripinfo id="flow_north_to_south.26" depart="46.00" departLane="north_to_0_3" departPos="5.10" departSpeed="14.38" departDelay="0.79" arrival="188.00" arrivalLane="0_to_south_2" arrivalPos="989.60" arrivalSpeed="13.99" duration="142.00" routeLength="1994.90" waitingTime="0.00" waitingCount="0" stopTime="0.00" timeLoss="2.72" rerouteNo="0" devices="tripinfo_flow_north_to_south.26" vType="carDist1" speedFactor="1.04" vaporized=""/>
    <tripinfo id="flow_south_to_west.0" depart="1.00" departLane="south_to_0_1" departPos="2.60" departSpeed="9.46" departDelay="1.00" arrival="189.00" arrivalLane="0_to_west_0" arrivalPos="983.20" arrivalSpeed="10.57" duration="188.00" routeLength="1984.40" waitingTime="0.00" waitingCount="0" stopTime="0.00" timeLoss="8.68" rerouteNo="0" devices="tripinfo_flow_south_to_west.0" vType="rickshawDist3" speedFactor="1.20" vaporized=""/>
    <tripinfo id="flow_bus_north_to_south.1" depart="23.00" departLane="north_to_0_0" departPos="12.10" departSpeed="13.89" departDelay="0.50" arrival="189.00" arrivalLane="0_to_south_1" arrivalPos="989.60" arrivalSpeed="13.86" duration="166.00" routeLength="1987.90" waitingTime="1.00" waitingCount="1" stopTime="10.00" timeLoss="12.21" rerouteNo="0" devices="tripinfo_flow_bus_north_to_south.1" vType="busDist1" speedFactor="1.00" vaporized=""/>
    <tripinfo id="flow_south_to_north.15" depart="29.00" departLane="south_to_0_3" departPos="3.10" departSpeed="12.83" departDelay="0.43" arrival="189.00" arrivalLane="0_to_north_0" arrivalPos="989.60" arrivalSpeed="12.26" duration="160.00" routeLength="1996.90" waitingTime="0.00" waitingCount="0" stopTime="0.00" timeLoss="3.91" rerouteNo="0" devices="tripinfo_flow_south_to_north.15" vType="cngDist1" speedFactor="0.92" vaporized=""/>
    <tripinfo id="flow_north_to_south.31" depart="54.00" departLane="north_to_0_3" departPos="2.10" departSpeed="16.38" departDelay="0.09" arrival="189.00" arrivalLane="0_to_south_3" arrivalPos="989.60" arrivalSpeed="15.83" duration="135.00" routeLength="1997.90" waitingTime="0.00" waitingCount="0" stopTime="0.00" timeLoss="12.41" rerouteNo="0" devices="tripinfo_flow_north_to_south.31" vType="motorcycleDist1" speedFactor="1.18" vaporized=""/>
    <tripinfo id="flow_south_to_north.24" depart="46.00" departLane="south_to_0_3" departPos="2.10" departSpeed="14.41" departDelay="0.28" arrival="190.00" arrivalLane="0_to_north_1" arrivalPos="989.60" arrivalSpeed="14.02" duration="144.00" routeLength="1997.90" waitingTime="0.00" waitingCount="0" stopTime="0.00" timeLoss="5.00" rerouteNo="0" devices="tripinfo_flow_south_to_north.24" vType="motorcycleDist1" speedFactor="1.04" vaporized=""/>
    <tripinfo id="flow_north_to_east.1" depart="3.00" departLane="north_to_0_1" departPos="2.60" departSpeed="10.81" departDelay="0.00" arrival="191.00" arrivalLane="u_turn_to_east_0" arrivalPos="900.00" arrivalSpeed="10.97" duration="188.00" routeLength="1984.50" waitingTime="0.00" waitingCount="0" stopTime="0.00" timeLoss="8.12" rerouteNo="0" devices="tripinfo_flow_north_to_east.1" vType="rickshawDist2" speedFactor="0.90" vaporized=""/>
    <tripinfo id="flow_south_to_north.3" depart="6.00" departLane="south_to_0_2" departPos="2.60" departSpeed="11.11" departDelay="0.29" arrival="193.00" arrivalLane="0_to_north_0" arrivalPos="989.60" arrivalSpeed="10.41" duration="187.00" routeLength="1997.40" waitingTime="0.00" waitingCount="0" stopTime="0.00" timeLoss="6.48" rerouteNo="0" devices="tripinfo_flow_south_to_north.3" vType="rickshawDist1" speedFactor="1.10" vaporized=""/>
    <tripinfo id="flow_north_to_south.4" depart="7.00" departLane="north_to_0_2" departPos="2.60" departSpeed="10.60" departDelay="0.04" arrival="193.00" arrivalLane="0_to_south_0" arrivalPos="989.60" arrivalSpeed="11.07" duration="186.00" routeLength="1997.40" waitingTime="0.00" waitingCount="0" stopTime="0.00" timeLoss="6.10" rerouteNo="0" devices="tripinfo_flow_north_to_south.4" vType="rickshawDist1" speedFactor="0.87" vaporized=""/>
    <tripinfo id="flow_north_to_south.22" depart="39.00" departLane="north_to_0_2" departPos="2.10" departSpeed="13.48" departDelay="0.74" arrival="193.00" arrivalLane="0_to_south_1" arrivalPos="989.60" arrivalSpeed="12.82" duration="154.00" routeLength="1997.90" waitingTime="0.00" waitingCount="0" stopTime="0.00" timeLoss="4.94" rerouteNo="0" devices="tripinfo_flow_north_to_south.22" vType="motorcycleDist1" speedFactor="0.97" vaporized=""/>
    <tripinfo id="flow_south_to_north.22" depart="42.00" departLane="south_to_0_3" departPos="5.10" departSpeed="13.57" departDelay="0.09" arrival="193.00" arrivalLane="0_to_north_1" arrivalPos="989.60" arrivalSpeed="13.08" duration="151.00" routeLength="1994.90" waitingTime="0.00" waitingCount="0" stopTime="0.00" timeLoss="3.67" rerouteNo="0" devices="tripinfo_flow_south_to_north.22" vType="carDist1" speedFactor="0.98" vaporized=""/>
    <tripinfo id="flow_north_to_east.4" depart="12.00" departLane="north_to_0_1" departPos="6.10" departSpeed="11.60" departDelay="0.00" arrival="194.00" arrivalLane="u_turn_to_east_1" arrivalPos="900.00" arrivalSpeed="11.40" duration="182.00" routeLength="1981.00" waitingTime="0.00" waitingCount="0" stopTime="0.00" timeLoss="10.05" rerouteNo="0" devices="tripinfo_flow_north_to_east.4" vType="microbusDist2" speedFactor="0.83" vaporized=""/>
    <tripinfo id="flow_south_to_north.18" depart="35.00" departLane="south_to_0_3" departPos="2.10" departSpeed="13.18" departDelay="0.71" arrival="194.00" arrivalLane="0_to_north_0" arrivalPos="989.60" arrivalSpeed="12.62" duration="159.00" routeLength="1997.90" waitingTime="0.00" waitingCount="0" stopTime="0.00" timeLoss="6.85" rerouteNo="0" devices="tripinfo_flow_south_to_north.18" vType="motorcycleDist1" speedFactor="0.95" vaporized=""/>
    <tripinfo id="flow_north_to_south.25" depart="44.00" departLane="north_to_0_2" departPos="2.10" departSpeed="14.34" departDelay="0.53" arrival="194.00" arrivalLane="0_to_south_1" arrivalPos="989.60" arrivalSpeed="13.91" duration="150.00" routeLength="1997.90" waitingTime="0.00" waitingCount="0" stopTime="0.00" timeLoss="10.29" rerouteNo="0" devices="tripinfo_flow_north_to_south.25" vType="motorcycleDist1" speedFactor="1.03" vaporized=""/>
    <tripinfo id="flow_north_to_east.2" depart="6.00" departLane="north_to_0_1" departPos="2.60" departSpeed="11.11" departDelay="0.00" arrival="195.00" arrivalLane="u_turn_to_east_0" arrivalPos="900.00" arrivalSpeed="10.79" duration="189.00" routeLength="1984.50" waitingTime="0.00" waitingCount="0" stopTime="0.00" timeLoss="9.35" rerouteNo="0" devices="tripinfo_flow_north_to_east.2" vType="rickshawDist2" speedFactor="1.01" vaporized=""/>
    <tripinfo id="flow_north_to_south.15" depart="27.00" departLane="north_to_0_0" departPos="12.10" departSpeed="13.89" departDelay="0.92" arrival="195.00" arrivalLane="0_to_south_0" arrivalPos="989.60" arrivalSpeed="12.11" duration="168.00" routeLength="1987.90" waitingTime="9.00" waitingCount="1" stopTime="0.00" timeLoss="24.25" rerouteNo="0" devices="tripinfo_flow_north_to_south.15" vType="busDist1" speedFactor="1.00" vaporized=""/>
    <tripinfo id="flow_south_to_west.6" depart="34.00" departLane="south_to_0_1" departPos="3.10" departSpeed="9.59" departDelay="0.77" arrival="195.00" arrivalLane="0_to_west_0" arrivalPos="983.20" arrivalSpeed="13.58" duration="161.00" routeLength="1983.90" waitingTime="4.00" waitingCount="1" stopTime="0.00" timeLoss="16.59" rerouteNo="0" devices="tripinfo_flow_south_to_west.6" vType="cngDist3" speedFactor="1.05" vaporized=""/>
    <tripinfo id="flow_south_to_north.26" depart="50.00" departLane="south_to_0_3" departPos="5.10" departSpeed="14.09" departDelay="0.47" arrival="195.00" arrivalLane="0_to_north_1" arrivalPos="989.60" arrivalSpeed="13.73" duration="145.00" routeLength="1994.90" waitingTime="0.00" waitingCount="0" stopTime="0.00" timeLoss="2.89" rerouteNo="0" devices="tripinfo_flow_south_to_north.26" vType="carDist1" speedFactor="1.01" vaporized=""/>
    <tripinfo id="flow_south_to_north.27" depart="52.00" departLane="south_to_0_2" departPos="6.10" departSpeed="14.44" departDelay="0.57" arrival="195.00" arrivalLane="0_to_north_2" arrivalPos="989.60" arrivalSpeed="14.28" duration="143.00" routeLength="1993.90" waitingTime="0.00" waitingCount="0" stopTime="0.00" timeLoss="4.29" rerouteNo="0" devices="tripinfo_flow_south_to_north.27" vType="microbusDist1" speedFactor="1.04" vaporized=""/>
    <tripinfo id="flow_bus_south_to_north.1" depart="24.00" departLane="south_to_0_0" departPos="12.10" departSpeed="13.89" departDelay="0.00" arrival="196.00" arrivalLane="0_to_north_0" arrivalPos="989.60" arrivalSpeed="12.71" duration="172.00" routeLength="1987.90" waitingTime="1.00" waitingCount="1" stopTime="10.00" timeLoss="18.57" rerouteNo="0" devices="tripinfo_flow_bus_south_to_north.1" vType="busDist1" speedFactor="1.00" vaporized=""/>
    <tripinfo id="flow_north_to_east.3" depart="9.00" departLane="north_to_0_1" departPos="2.60" departSpeed="11.11" departDelay="0.00" arrival="197.00" arrivalLane="u_turn_to_east_0" arrivalPos="900.00" arrivalSpeed="10.73" duration="188.00" routeLength="1984.50" waitingTime="0.00" waitingCount="0" stopTime="0.00" timeLoss="9.09" rerouteNo="0" devices="tripinfo_flow_north_to_east.3" vType="rickshawDist2" speedFactor="1.15" vaporized=""/>